<?xml version="1.0" encoding="UTF-8"?>

<!-- generated on Wed 14 Apr 15:46:18 2021 by Eclipse SUMO GUI Version 1.8.0
<configuration xmlns:xsi="http://www.w3.org/2001/XMLSchema-instance" xsi:noNamespaceSchemaLocation="http://sumo.dlr.de/xsd/sumoConfiguration.xsd">

    <input>
        <net-file value="simpleMap.net.xml"/>
        <route-files value="routes.rou.xml"/>
        <additional-files value="add_macro.xml"/>
    </input>

    <output>
        <queue-output value="queuedata.xml"/>
    </output>

    <traci_server>
        <remote-port value="64610"/>
    </traci_server>

</configuration>
-->

<queue-export xmlns:xsi="http://www.w3.org/2001/XMLSchema-instance" xsi:noNamespaceSchemaLocation="http://sumo.dlr.de/xsd/queue_file.xsd">
</queue-export>
