<?xml version="1.0" encoding="UTF-8"?>

<!-- generated on Sat  3 Apr 08:14:18 2021 by Eclipse SUMO GUI Version 1.8.0
<configuration xmlns:xsi="http://www.w3.org/2001/XMLSchema-instance" xsi:noNamespaceSchemaLocation="http://sumo.dlr.de/xsd/sumoConfiguration.xsd">

    <input>
        <net-file value="simpleMap.net.xml"/>
        <route-files value="routes.rou.xml"/>
        <additional-files value="add_macro.xml"/>
    </input>

    <output>
        <queue-output value="queuedata.xml"/>
    </output>

    <traci_server>
        <remote-port value="58333"/>
    </traci_server>

</configuration>
-->

<queue-export xmlns:xsi="http://www.w3.org/2001/XMLSchema-instance" xsi:noNamespaceSchemaLocation="http://sumo.dlr.de/xsd/queue_file.xsd">
    <data timestep="0.00">
        <lanes/>
    </data>
    <data timestep="1.00">
        <lanes/>
    </data>
    <data timestep="2.00">
        <lanes/>
    </data>
    <data timestep="3.00">
        <lanes/>
    </data>
    <data timestep="4.00">
        <lanes/>
    </data>
    <data timestep="5.00">
        <lanes/>
    </data>
    <data timestep="6.00">
        <lanes/>
    </data>
    <data timestep="7.00">
        <lanes/>
    </data>
    <data timestep="8.00">
        <lanes/>
    </data>
    <data timestep="9.00">
        <lanes/>
    </data>
    <data timestep="10.00">
        <lanes/>
    </data>
    <data timestep="11.00">
        <lanes/>
    </data>
    <data timestep="12.00">
        <lanes/>
    </data>
    <data timestep="13.00">
        <lanes/>
    </data>
    <data timestep="14.00">
        <lanes/>
    </data>
    <data timestep="15.00">
        <lanes/>
    </data>
    <data timestep="16.00">
        <lanes/>
    </data>
    <data timestep="17.00">
        <lanes/>
    </data>
    <data timestep="18.00">
        <lanes/>
    </data>
    <data timestep="19.00">
        <lanes/>
    </data>
    <data timestep="20.00">
        <lanes/>
    </data>
    <data timestep="21.00">
        <lanes/>
    </data>
    <data timestep="22.00">
        <lanes>
            <lane id="S2T_0" queueing_time="0.00" queueing_length="0.00" queueing_length_experimental="6.26"/>
        </lanes>
    </data>
    <data timestep="23.00">
        <lanes>
            <lane id="S2T_0" queueing_time="0.00" queueing_length="0.00" queueing_length_experimental="6.10"/>
        </lanes>
    </data>
    <data timestep="24.00">
        <lanes>
            <lane id="S2T_0" queueing_time="1.00" queueing_length="6.04" queueing_length_experimental="6.04"/>
        </lanes>
    </data>
    <data timestep="25.00">
        <lanes>
            <lane id="N2T_0" queueing_time="1.00" queueing_length="6.01" queueing_length_experimental="6.01"/>
            <lane id="S2T_0" queueing_time="2.00" queueing_length="6.02" queueing_length_experimental="6.02"/>
        </lanes>
    </data>
    <data timestep="26.00">
        <lanes>
            <lane id="N2T_0" queueing_time="0.00" queueing_length="0.00" queueing_length_experimental="14.17"/>
            <lane id="S2T_0" queueing_time="3.00" queueing_length="6.01" queueing_length_experimental="6.01"/>
            <lane id="W2T_0" queueing_time="0.00" queueing_length="0.00" queueing_length_experimental="6.16"/>
        </lanes>
    </data>
    <data timestep="27.00">
        <lanes>
            <lane id="S2T_0" queueing_time="4.00" queueing_length="6.00" queueing_length_experimental="6.00"/>
            <lane id="W2T_0" queueing_time="1.00" queueing_length="6.08" queueing_length_experimental="6.08"/>
        </lanes>
    </data>
    <data timestep="28.00">
        <lanes>
            <lane id="E2T_0" queueing_time="0.00" queueing_length="0.00" queueing_length_experimental="6.18"/>
            <lane id="S2T_0" queueing_time="5.00" queueing_length="6.00" queueing_length_experimental="6.00"/>
            <lane id="W2T_0" queueing_time="2.00" queueing_length="6.02" queueing_length_experimental="6.02"/>
        </lanes>
    </data>
    <data timestep="29.00">
        <lanes>
            <lane id="E2T_0" queueing_time="0.00" queueing_length="0.00" queueing_length_experimental="6.07"/>
            <lane id="S2T_0" queueing_time="6.00" queueing_length="6.00" queueing_length_experimental="6.00"/>
            <lane id="W2T_0" queueing_time="3.00" queueing_length="6.01" queueing_length_experimental="6.01"/>
        </lanes>
    </data>
    <data timestep="30.00">
        <lanes>
            <lane id="E2T_0" queueing_time="1.00" queueing_length="6.03" queueing_length_experimental="6.03"/>
            <lane id="N2T_0" queueing_time="0.00" queueing_length="0.00" queueing_length_experimental="6.28"/>
            <lane id="S2T_0" queueing_time="7.00" queueing_length="6.00" queueing_length_experimental="6.00"/>
            <lane id="W2T_0" queueing_time="4.00" queueing_length="6.00" queueing_length_experimental="13.51"/>
        </lanes>
    </data>
    <data timestep="31.00">
        <lanes>
            <lane id="E2T_0" queueing_time="2.00" queueing_length="6.00" queueing_length_experimental="6.00"/>
            <lane id="N2T_0" queueing_time="0.00" queueing_length="0.00" queueing_length_experimental="6.04"/>
            <lane id="S2T_0" queueing_time="8.00" queueing_length="6.00" queueing_length_experimental="6.00"/>
            <lane id="W2T_0" queueing_time="1.00" queueing_length="13.51" queueing_length_experimental="13.51"/>
        </lanes>
    </data>
    <data timestep="32.00">
        <lanes>
            <lane id="E2T_0" queueing_time="3.00" queueing_length="6.00" queueing_length_experimental="6.00"/>
            <lane id="N2T_0" queueing_time="1.00" queueing_length="6.00" queueing_length_experimental="6.00"/>
            <lane id="S2T_0" queueing_time="9.00" queueing_length="6.00" queueing_length_experimental="6.00"/>
        </lanes>
    </data>
    <data timestep="33.00">
        <lanes>
            <lane id="E2T_0" queueing_time="4.00" queueing_length="6.00" queueing_length_experimental="13.70"/>
            <lane id="N2T_0" queueing_time="2.00" queueing_length="6.00" queueing_length_experimental="6.00"/>
            <lane id="S2T_0" queueing_time="10.00" queueing_length="6.00" queueing_length_experimental="6.00"/>
        </lanes>
    </data>
    <data timestep="34.00">
        <lanes>
            <lane id="E2T_0" queueing_time="5.00" queueing_length="6.00" queueing_length_experimental="13.52"/>
            <lane id="N2T_0" queueing_time="3.00" queueing_length="6.00" queueing_length_experimental="6.00"/>
            <lane id="S2T_0" queueing_time="11.00" queueing_length="6.00" queueing_length_experimental="6.00"/>
        </lanes>
    </data>
    <data timestep="35.00">
        <lanes>
            <lane id="E2T_0" queueing_time="6.00" queueing_length="13.51" queueing_length_experimental="13.51"/>
            <lane id="N2T_0" queueing_time="4.00" queueing_length="6.00" queueing_length_experimental="13.73"/>
            <lane id="S2T_0" queueing_time="12.00" queueing_length="6.00" queueing_length_experimental="6.00"/>
            <lane id="W2T_0" queueing_time="0.00" queueing_length="0.00" queueing_length_experimental="6.14"/>
        </lanes>
    </data>
    <data timestep="36.00">
        <lanes>
            <lane id="E2T_0" queueing_time="7.00" queueing_length="13.51" queueing_length_experimental="13.51"/>
            <lane id="N2T_0" queueing_time="5.00" queueing_length="6.00" queueing_length_experimental="13.57"/>
            <lane id="W2T_0" queueing_time="0.00" queueing_length="0.00" queueing_length_experimental="13.94"/>
        </lanes>
    </data>
    <data timestep="37.00">
        <lanes>
            <lane id="E2T_0" queueing_time="8.00" queueing_length="13.50" queueing_length_experimental="13.50"/>
            <lane id="N2T_0" queueing_time="6.00" queueing_length="13.51" queueing_length_experimental="21.21"/>
            <lane id="W2T_0" queueing_time="1.00" queueing_length="6.01" queueing_length_experimental="13.65"/>
        </lanes>
    </data>
    <data timestep="38.00">
        <lanes>
            <lane id="E2T_0" queueing_time="9.00" queueing_length="13.50" queueing_length_experimental="13.50"/>
            <lane id="N2T_0" queueing_time="7.00" queueing_length="13.51" queueing_length_experimental="21.04"/>
            <lane id="W2T_0" queueing_time="2.00" queueing_length="13.55" queueing_length_experimental="13.55"/>
        </lanes>
    </data>
    <data timestep="39.00">
        <lanes>
            <lane id="E2T_0" queueing_time="10.00" queueing_length="13.50" queueing_length_experimental="13.50"/>
            <lane id="N2T_0" queueing_time="8.00" queueing_length="21.02" queueing_length_experimental="21.02"/>
            <lane id="W2T_0" queueing_time="3.00" queueing_length="13.52" queueing_length_experimental="21.49"/>
        </lanes>
    </data>
    <data timestep="40.00">
        <lanes>
            <lane id="E2T_0" queueing_time="11.00" queueing_length="13.50" queueing_length_experimental="13.50"/>
            <lane id="N2T_0" queueing_time="9.00" queueing_length="21.01" queueing_length_experimental="21.01"/>
            <lane id="S2T_0" queueing_time="0.00" queueing_length="0.00" queueing_length_experimental="6.06"/>
            <lane id="W2T_0" queueing_time="4.00" queueing_length="13.51" queueing_length_experimental="21.04"/>
        </lanes>
    </data>
    <data timestep="41.00">
        <lanes>
            <lane id="E2T_0" queueing_time="7.00" queueing_length="13.50" queueing_length_experimental="13.50"/>
            <lane id="N2T_0" queueing_time="10.00" queueing_length="21.00" queueing_length_experimental="21.00"/>
            <lane id="S2T_0" queueing_time="1.00" queueing_length="6.02" queueing_length_experimental="6.02"/>
            <lane id="W2T_0" queueing_time="5.00" queueing_length="21.02" queueing_length_experimental="21.02"/>
        </lanes>
    </data>
    <data timestep="42.00">
        <lanes>
            <lane id="N2T_0" queueing_time="11.00" queueing_length="21.00" queueing_length_experimental="21.00"/>
            <lane id="S2T_0" queueing_time="2.00" queueing_length="6.01" queueing_length_experimental="6.01"/>
            <lane id="W2T_0" queueing_time="6.00" queueing_length="21.01" queueing_length_experimental="28.68"/>
        </lanes>
    </data>
    <data timestep="43.00">
        <lanes>
            <lane id="N2T_0" queueing_time="12.00" queueing_length="21.00" queueing_length_experimental="21.00"/>
            <lane id="S2T_0" queueing_time="3.00" queueing_length="6.00" queueing_length_experimental="6.00"/>
            <lane id="W2T_0" queueing_time="7.00" queueing_length="21.00" queueing_length_experimental="36.22"/>
        </lanes>
    </data>
    <data timestep="44.00">
        <lanes>
            <lane id="N2T_0" queueing_time="13.00" queueing_length="21.00" queueing_length_experimental="21.00"/>
            <lane id="S2T_0" queueing_time="4.00" queueing_length="6.00" queueing_length_experimental="6.00"/>
            <lane id="W2T_0" queueing_time="8.00" queueing_length="28.52" queueing_length_experimental="36.06"/>
        </lanes>
    </data>
    <data timestep="45.00">
        <lanes>
            <lane id="E2T_0" queueing_time="0.00" queueing_length="0.00" queueing_length_experimental="6.01"/>
            <lane id="N2T_0" queueing_time="14.00" queueing_length="21.00" queueing_length_experimental="21.00"/>
            <lane id="S2T_0" queueing_time="5.00" queueing_length="6.00" queueing_length_experimental="13.70"/>
            <lane id="W2T_0" queueing_time="9.00" queueing_length="36.03" queueing_length_experimental="43.65"/>
        </lanes>
    </data>
    <data timestep="46.00">
        <lanes>
            <lane id="E2T_0" queueing_time="1.00" queueing_length="6.00" queueing_length_experimental="13.88"/>
            <lane id="N2T_0" queueing_time="10.00" queueing_length="21.00" queueing_length_experimental="28.82"/>
            <lane id="S2T_0" queueing_time="6.00" queueing_length="6.00" queueing_length_experimental="13.53"/>
            <lane id="W2T_0" queueing_time="10.00" queueing_length="36.01" queueing_length_experimental="43.53"/>
        </lanes>
    </data>
    <data timestep="47.00">
        <lanes>
            <lane id="E2T_0" queueing_time="2.00" queueing_length="6.00" queueing_length_experimental="21.98"/>
            <lane id="N2T_0" queueing_time="9.00" queueing_length="21.00" queueing_length_experimental="28.61"/>
            <lane id="S2T_0" queueing_time="7.00" queueing_length="13.51" queueing_length_experimental="21.06"/>
            <lane id="W2T_0" queueing_time="11.00" queueing_length="43.51" queueing_length_experimental="51.13"/>
        </lanes>
    </data>
    <data timestep="48.00">
        <lanes>
            <lane id="E2T_0" queueing_time="3.00" queueing_length="6.00" queueing_length_experimental="21.52"/>
            <lane id="N2T_0" queueing_time="1.00" queueing_length="28.53" queueing_length_experimental="28.53"/>
            <lane id="S2T_0" queueing_time="8.00" queueing_length="21.02" queueing_length_experimental="21.02"/>
            <lane id="W2T_0" queueing_time="12.00" queueing_length="43.51" queueing_length_experimental="51.02"/>
        </lanes>
    </data>
    <data timestep="49.00">
        <lanes>
            <lane id="E2T_0" queueing_time="4.00" queueing_length="13.52" queueing_length_experimental="21.28"/>
            <lane id="N2T_0" queueing_time="1.00" queueing_length="36.07" queueing_length_experimental="36.07"/>
            <lane id="S2T_0" queueing_time="9.00" queueing_length="21.01" queueing_length_experimental="21.01"/>
            <lane id="W2T_0" queueing_time="13.00" queueing_length="51.01" queueing_length_experimental="51.01"/>
        </lanes>
    </data>
    <data timestep="50.00">
        <lanes>
            <lane id="E2T_0" queueing_time="5.00" queueing_length="13.51" queueing_length_experimental="28.81"/>
            <lane id="N2T_0" queueing_time="0.00" queueing_length="0.00" queueing_length_experimental="34.73"/>
            <lane id="S2T_0" queueing_time="10.00" queueing_length="21.01" queueing_length_experimental="21.01"/>
            <lane id="W2T_0" queueing_time="14.00" queueing_length="51.01" queueing_length_experimental="51.01"/>
        </lanes>
    </data>
    <data timestep="51.00">
        <lanes>
            <lane id="E2T_0" queueing_time="6.00" queueing_length="21.03" queueing_length_experimental="28.64"/>
            <lane id="N2T_0" queueing_time="1.00" queueing_length="6.02" queueing_length_experimental="22.80"/>
            <lane id="S2T_0" queueing_time="11.00" queueing_length="21.00" queueing_length_experimental="21.00"/>
            <lane id="W2T_0" queueing_time="14.00" queueing_length="51.01" queueing_length_experimental="51.01"/>
        </lanes>
    </data>
    <data timestep="52.00">
        <lanes>
            <lane id="E2T_0" queueing_time="7.00" queueing_length="21.01" queueing_length_experimental="28.54"/>
            <lane id="N2T_0" queueing_time="2.00" queueing_length="6.00" queueing_length_experimental="30.52"/>
            <lane id="S2T_0" queueing_time="12.00" queueing_length="21.00" queueing_length_experimental="21.00"/>
            <lane id="W2T_0" queueing_time="12.00" queueing_length="51.01" queueing_length_experimental="58.69"/>
        </lanes>
    </data>
    <data timestep="53.00">
        <lanes>
            <lane id="E2T_0" queueing_time="8.00" queueing_length="28.52" queueing_length_experimental="36.08"/>
            <lane id="N2T_0" queueing_time="3.00" queueing_length="13.52" queueing_length_experimental="21.10"/>
            <lane id="S2T_0" queueing_time="13.00" queueing_length="21.00" queueing_length_experimental="21.00"/>
            <lane id="W2T_0" queueing_time="10.00" queueing_length="51.01" queueing_length_experimental="58.54"/>
        </lanes>
    </data>
    <data timestep="54.00">
        <lanes>
            <lane id="E2T_0" queueing_time="9.00" queueing_length="36.04" queueing_length_experimental="36.04"/>
            <lane id="N2T_0" queueing_time="4.00" queueing_length="21.03" queueing_length_experimental="28.71"/>
            <lane id="S2T_0" queueing_time="14.00" queueing_length="21.00" queueing_length_experimental="21.00"/>
            <lane id="W2T_0" queueing_time="10.00" queueing_length="58.51" queueing_length_experimental="58.51"/>
        </lanes>
    </data>
    <data timestep="55.00">
        <lanes>
            <lane id="E2T_0" queueing_time="10.00" queueing_length="36.02" queueing_length_experimental="36.02"/>
            <lane id="N2T_0" queueing_time="5.00" queueing_length="21.01" queueing_length_experimental="28.55"/>
            <lane id="S2T_0" queueing_time="15.00" queueing_length="21.00" queueing_length_experimental="21.00"/>
            <lane id="W2T_0" queueing_time="9.00" queueing_length="58.51" queueing_length_experimental="66.04"/>
        </lanes>
    </data>
    <data timestep="56.00">
        <lanes>
            <lane id="E2T_0" queueing_time="11.00" queueing_length="36.01" queueing_length_experimental="36.01"/>
            <lane id="N2T_0" queueing_time="6.00" queueing_length="28.53" queueing_length_experimental="28.53"/>
            <lane id="S2T_0" queueing_time="10.00" queueing_length="21.00" queueing_length_experimental="21.00"/>
            <lane id="W2T_0" queueing_time="8.00" queueing_length="66.02" queueing_length_experimental="73.66"/>
        </lanes>
    </data>
    <data timestep="57.00">
        <lanes>
            <lane id="E2T_0" queueing_time="12.00" queueing_length="36.01" queueing_length_experimental="43.96"/>
            <lane id="N2T_0" queueing_time="7.00" queueing_length="28.51" queueing_length_experimental="28.51"/>
            <lane id="S2T_0" queueing_time="10.00" queueing_length="21.00" queueing_length_experimental="21.00"/>
            <lane id="W2T_0" queueing_time="4.00" queueing_length="66.01" queueing_length_experimental="73.53"/>
        </lanes>
    </data>
    <data timestep="58.00">
        <lanes>
            <lane id="E2T_0" queueing_time="13.00" queueing_length="36.01" queueing_length_experimental="43.57"/>
            <lane id="N2T_0" queueing_time="8.00" queueing_length="28.50" queueing_length_experimental="28.50"/>
            <lane id="S2T_0" queueing_time="0.00" queueing_length="0.00" queueing_length_experimental="19.70"/>
            <lane id="W2T_0" queueing_time="3.00" queueing_length="73.52" queueing_length_experimental="73.52"/>
        </lanes>
    </data>
    <data timestep="59.00">
        <lanes>
            <lane id="E2T_0" queueing_time="14.00" queueing_length="43.53" queueing_length_experimental="43.53"/>
            <lane id="N2T_0" queueing_time="9.00" queueing_length="28.50" queueing_length_experimental="28.50"/>
            <lane id="W2T_0" queueing_time="3.00" queueing_length="73.51" queueing_length_experimental="81.13"/>
        </lanes>
    </data>
    <data timestep="60.00">
        <lanes>
            <lane id="E2T_0" queueing_time="15.00" queueing_length="43.51" queueing_length_experimental="43.51"/>
            <lane id="N2T_0" queueing_time="10.00" queueing_length="28.50" queueing_length_experimental="28.50"/>
            <lane id="S2T_0" queueing_time="1.00" queueing_length="6.04" queueing_length_experimental="6.04"/>
            <lane id="W2T_0" queueing_time="4.00" queueing_length="81.04" queueing_length_experimental="81.04"/>
        </lanes>
    </data>
    <data timestep="61.00">
        <lanes>
            <lane id="E2T_0" queueing_time="13.00" queueing_length="43.51" queueing_length_experimental="43.51"/>
            <lane id="N2T_0" queueing_time="11.00" queueing_length="28.50" queueing_length_experimental="36.05"/>
            <lane id="S2T_0" queueing_time="2.00" queueing_length="6.02" queueing_length_experimental="13.70"/>
            <lane id="W2T_0" queueing_time="5.00" queueing_length="21.03" queueing_length_experimental="80.92"/>
        </lanes>
    </data>
    <data timestep="62.00">
        <lanes>
            <lane id="E2T_0" queueing_time="12.00" queueing_length="43.51" queueing_length_experimental="43.51"/>
            <lane id="N2T_0" queueing_time="12.00" queueing_length="36.01" queueing_length_experimental="43.62"/>
            <lane id="S2T_0" queueing_time="3.00" queueing_length="13.61" queueing_length_experimental="21.23"/>
            <lane id="W2T_0" queueing_time="6.00" queueing_length="28.54" queueing_length_experimental="80.38"/>
        </lanes>
    </data>
    <data timestep="63.00">
        <lanes>
            <lane id="E2T_0" queueing_time="11.00" queueing_length="43.51" queueing_length_experimental="43.51"/>
            <lane id="N2T_0" queueing_time="13.00" queueing_length="43.55" queueing_length_experimental="43.55"/>
            <lane id="S2T_0" queueing_time="4.00" queueing_length="21.15" queueing_length_experimental="21.15"/>
            <lane id="W2T_0" queueing_time="7.00" queueing_length="36.08" queueing_length_experimental="87.89"/>
        </lanes>
    </data>
    <data timestep="64.00">
        <lanes>
            <lane id="E2T_0" queueing_time="11.00" queueing_length="43.51" queueing_length_experimental="43.51"/>
            <lane id="N2T_0" queueing_time="14.00" queueing_length="43.51" queueing_length_experimental="43.51"/>
            <lane id="S2T_0" queueing_time="5.00" queueing_length="13.51" queueing_length_experimental="28.74"/>
            <lane id="W2T_0" queueing_time="8.00" queueing_length="36.03" queueing_length_experimental="86.76"/>
        </lanes>
    </data>
    <data timestep="65.00">
        <lanes>
            <lane id="E2T_0" queueing_time="7.00" queueing_length="43.51" queueing_length_experimental="51.18"/>
            <lane id="N2T_0" queueing_time="15.00" queueing_length="43.51" queueing_length_experimental="43.51"/>
            <lane id="S2T_0" queueing_time="6.00" queueing_length="21.01" queueing_length_experimental="36.41"/>
            <lane id="W2T_0" queueing_time="9.00" queueing_length="43.60" queueing_length_experimental="94.76"/>
        </lanes>
    </data>
    <data timestep="66.00">
        <lanes>
            <lane id="E2T_0" queueing_time="1.00" queueing_length="6.02" queueing_length_experimental="51.01"/>
            <lane id="N2T_0" queueing_time="16.00" queueing_length="43.51" queueing_length_experimental="43.51"/>
            <lane id="S2T_0" queueing_time="7.00" queueing_length="28.51" queueing_length_experimental="36.23"/>
            <lane id="W2T_0" queueing_time="10.00" queueing_length="43.55" queueing_length_experimental="84.23"/>
        </lanes>
    </data>
    <data timestep="67.00">
        <lanes>
            <lane id="E2T_0" queueing_time="2.00" queueing_length="6.00" queueing_length_experimental="59.11"/>
            <lane id="N2T_0" queueing_time="15.00" queueing_length="43.51" queueing_length_experimental="43.51"/>
            <lane id="S2T_0" queueing_time="8.00" queueing_length="28.51" queueing_length_experimental="36.03"/>
            <lane id="W2T_0" queueing_time="11.00" queueing_length="51.08" queueing_length_experimental="92.08"/>
        </lanes>
    </data>
    <data timestep="68.00">
        <lanes>
            <lane id="E2T_0" queueing_time="3.00" queueing_length="13.52" queueing_length_experimental="58.54"/>
            <lane id="N2T_0" queueing_time="15.00" queueing_length="43.51" queueing_length_experimental="43.51"/>
            <lane id="S2T_0" queueing_time="9.00" queueing_length="36.02" queueing_length_experimental="36.02"/>
            <lane id="W2T_0" queueing_time="12.00" queueing_length="51.03" queueing_length_experimental="91.41"/>
        </lanes>
    </data>
    <data timestep="69.00">
        <lanes>
            <lane id="E2T_0" queueing_time="4.00" queueing_length="21.03" queueing_length_experimental="57.51"/>
            <lane id="N2T_0" queueing_time="14.00" queueing_length="43.51" queueing_length_experimental="43.51"/>
            <lane id="S2T_0" queueing_time="10.00" queueing_length="36.01" queueing_length_experimental="36.01"/>
            <lane id="W2T_0" queueing_time="13.00" queueing_length="58.54" queueing_length_experimental="90.24"/>
        </lanes>
    </data>
    <data timestep="70.00">
        <lanes>
            <lane id="E2T_0" queueing_time="5.00" queueing_length="21.02" queueing_length_experimental="37.13"/>
            <lane id="N2T_0" queueing_time="9.00" queueing_length="43.51" queueing_length_experimental="43.51"/>
            <lane id="S2T_0" queueing_time="11.00" queueing_length="36.01" queueing_length_experimental="36.01"/>
            <lane id="W2T_0" queueing_time="14.00" queueing_length="66.06" queueing_length_experimental="89.75"/>
        </lanes>
    </data>
    <data timestep="71.00">
        <lanes>
            <lane id="E2T_0" queueing_time="6.00" queueing_length="21.00" queueing_length_experimental="44.98"/>
            <lane id="N2T_0" queueing_time="9.00" queueing_length="43.51" queueing_length_experimental="43.51"/>
            <lane id="S2T_0" queueing_time="12.00" queueing_length="36.01" queueing_length_experimental="36.01"/>
            <lane id="W2T_0" queueing_time="15.00" queueing_length="66.03" queueing_length_experimental="89.21"/>
        </lanes>
    </data>
    <data timestep="72.00">
        <lanes>
            <lane id="E2T_0" queueing_time="7.00" queueing_length="28.51" queueing_length_experimental="44.01"/>
            <lane id="N2T_0" queueing_time="0.00" queueing_length="0.00" queueing_length_experimental="42.99"/>
            <lane id="S2T_0" queueing_time="13.00" queueing_length="36.01" queueing_length_experimental="36.01"/>
            <lane id="W2T_0" queueing_time="16.00" queueing_length="73.54" queueing_length_experimental="88.96"/>
        </lanes>
    </data>
    <data timestep="73.00">
        <lanes>
            <lane id="E2T_0" queueing_time="8.00" queueing_length="36.04" queueing_length_experimental="51.58"/>
            <lane id="S2T_0" queueing_time="14.00" queueing_length="36.01" queueing_length_experimental="36.01"/>
            <lane id="W2T_0" queueing_time="17.00" queueing_length="81.05" queueing_length_experimental="88.63"/>
        </lanes>
    </data>
    <data timestep="74.00">
        <lanes>
            <lane id="E2T_0" queueing_time="9.00" queueing_length="43.58" queueing_length_experimental="51.21"/>
            <lane id="N2T_0" queueing_time="0.00" queueing_length="0.00" queueing_length_experimental="6.11"/>
            <lane id="S2T_0" queueing_time="15.00" queueing_length="36.01" queueing_length_experimental="36.01"/>
            <lane id="W2T_0" queueing_time="17.00" queueing_length="88.59" queueing_length_experimental="88.59"/>
        </lanes>
    </data>
    <data timestep="75.00">
        <lanes>
            <lane id="E2T_0" queueing_time="10.00" queueing_length="51.13" queueing_length_experimental="51.13"/>
            <lane id="N2T_0" queueing_time="1.00" queueing_length="6.05" queueing_length_experimental="13.62"/>
            <lane id="S2T_0" queueing_time="16.00" queueing_length="36.01" queueing_length_experimental="36.01"/>
            <lane id="W2T_0" queueing_time="15.00" queueing_length="88.56" queueing_length_experimental="88.56"/>
        </lanes>
    </data>
    <data timestep="76.00">
        <lanes>
            <lane id="E2T_0" queueing_time="11.00" queueing_length="51.06" queueing_length_experimental="51.06"/>
            <lane id="N2T_0" queueing_time="2.00" queueing_length="13.56" queueing_length_experimental="13.56"/>
            <lane id="S2T_0" queueing_time="17.00" queueing_length="36.01" queueing_length_experimental="36.01"/>
            <lane id="W2T_0" queueing_time="15.00" queueing_length="88.54" queueing_length_experimental="88.54"/>
        </lanes>
    </data>
    <data timestep="77.00">
        <lanes>
            <lane id="E2T_0" queueing_time="12.00" queueing_length="51.03" queueing_length_experimental="51.03"/>
            <lane id="N2T_0" queueing_time="3.00" queueing_length="13.51" queueing_length_experimental="21.22"/>
            <lane id="S2T_0" queueing_time="18.00" queueing_length="36.01" queueing_length_experimental="36.01"/>
            <lane id="W2T_0" queueing_time="15.00" queueing_length="88.53" queueing_length_experimental="88.53"/>
        </lanes>
    </data>
    <data timestep="78.00">
        <lanes>
            <lane id="E2T_0" queueing_time="13.00" queueing_length="51.01" queueing_length_experimental="51.01"/>
            <lane id="N2T_0" queueing_time="4.00" queueing_length="13.50" queueing_length_experimental="28.85"/>
            <lane id="S2T_0" queueing_time="19.00" queueing_length="36.01" queueing_length_experimental="36.01"/>
            <lane id="W2T_0" queueing_time="14.00" queueing_length="88.52" queueing_length_experimental="88.52"/>
        </lanes>
    </data>
    <data timestep="79.00">
        <lanes>
            <lane id="E2T_0" queueing_time="14.00" queueing_length="51.01" queueing_length_experimental="51.01"/>
            <lane id="N2T_0" queueing_time="5.00" queueing_length="21.01" queueing_length_experimental="28.67"/>
            <lane id="S2T_0" queueing_time="20.00" queueing_length="36.01" queueing_length_experimental="36.01"/>
            <lane id="W2T_0" queueing_time="13.00" queueing_length="88.51" queueing_length_experimental="88.51"/>
        </lanes>
    </data>
    <data timestep="80.00">
        <lanes>
            <lane id="E2T_0" queueing_time="15.00" queueing_length="51.01" queueing_length_experimental="51.01"/>
            <lane id="N2T_0" queueing_time="6.00" queueing_length="21.01" queueing_length_experimental="28.52"/>
            <lane id="S2T_0" queueing_time="21.00" queueing_length="36.01" queueing_length_experimental="36.01"/>
            <lane id="W2T_0" queueing_time="12.00" queueing_length="88.51" queueing_length_experimental="88.51"/>
        </lanes>
    </data>
    <data timestep="81.00">
        <lanes>
            <lane id="E2T_0" queueing_time="16.00" queueing_length="51.01" queueing_length_experimental="51.01"/>