<?xml version="1.0" encoding="UTF-8"?>

<!-- generated on 05/01/21 17:04:08 by Eclipse SUMO GUI Version 1.8.0
<configuration xmlns:xsi="http://www.w3.org/2001/XMLSchema-instance" xsi:noNamespaceSchemaLocation="http://sumo.dlr.de/xsd/sumoConfiguration.xsd">

    <input>
        <net-file value="osm.net.xml"/>
        <route-files value="network/test/uniform.rou.xml"/>
        <additional-files value="additional.xml"/>
    </input>

    <output>
        <queue-output value="queuedata.xml"/>
    </output>

    <processing>
        <ignore-route-errors value="true"/>
        <scale value="1.5"/>
    </processing>

    <report>
        <log value="LOGFILE"/>
    </report>

    <traci_server>
        <remote-port value="62549"/>
    </traci_server>

    <gui_only>
        <gui-settings-file value="gui-settings.cfg"/>
    </gui_only>

</configuration>
-->

<queue-export xmlns:xsi="http://www.w3.org/2001/XMLSchema-instance" xsi:noNamespaceSchemaLocation="http://sumo.dlr.de/xsd/queue_file.xsd">
    <data timestep="0.00">
        <lanes/>
    </data>
    <data timestep="1.00">
        <lanes/>
    </data>
    <data timestep="2.00">
        <lanes/>
    </data>
    <data timestep="3.00">
        <lanes/>
    </data>
    <data timestep="4.00">
        <lanes/>
    </data>
    <data timestep="5.00">
        <lanes/>
    </data>
    <data timestep="6.00">
        <lanes/>
    </data>
    <data timestep="7.00">
        <lanes/>
    </data>
    <data timestep="8.00">
        <lanes/>
    </data>
    <data timestep="9.00">
        <lanes/>
    </data>
    <data timestep="10.00">
        <lanes/>
    </data>
    <data timestep="11.00">
        <lanes/>
    </data>
    <data timestep="12.00">
        <lanes/>
    </data>
    <data timestep="13.00">
        <lanes/>
    </data>
    <data timestep="14.00">
        <lanes/>
    </data>
    <data timestep="15.00">
        <lanes/>
    </data>
    <data timestep="16.00">
        <lanes/>
    </data>
    <data timestep="17.00">
        <lanes/>
    </data>
    <data timestep="18.00">
        <lanes/>
    </data>
    <data timestep="19.00">
        <lanes/>
    </data>
    <data timestep="20.00">
        <lanes/>
    </data>
    <data timestep="21.00">
        <lanes/>
    </data>
    <data timestep="22.00">
        <lanes/>
    </data>
    <data timestep="23.00">
        <lanes/>
    </data>
    <data timestep="24.00">
        <lanes/>
    </data>
    <data timestep="25.00">
        <lanes/>
    </data>
    <data timestep="26.00">
        <lanes/>
    </data>
    <data timestep="27.00">
        <lanes/>
    </data>
    <data timestep="28.00">
        <lanes/>
    </data>
    <data timestep="29.00">
        <lanes/>
    </data>
    <data timestep="30.00">
        <lanes/>
    </data>
    <data timestep="31.00">
        <lanes/>
    </data>
    <data timestep="32.00">
        <lanes/>
    </data>
    <data timestep="33.00">
        <lanes/>
    </data>
    <data timestep="34.00">
        <lanes/>
    </data>
    <data timestep="35.00">
        <lanes/>
    </data>
    <data timestep="36.00">
        <lanes/>
    </data>
    <data timestep="37.00">
        <lanes/>
    </data>
    <data timestep="38.00">
        <lanes/>
    </data>
    <data timestep="39.00">
        <lanes/>
    </data>
    <data timestep="40.00">
        <lanes/>
    </data>
    <data timestep="41.00">
        <lanes/>
    </data>
    <data timestep="42.00">
        <lanes/>
    </data>
    <data timestep="43.00">
        <lanes/>
    </data>
    <data timestep="44.00">
        <lanes/>
    </data>
    <data timestep="45.00">
        <lanes/>
    </data>
    <data timestep="46.00">
        <lanes/>
    </data>
    <data timestep="47.00">
        <lanes/>
    </data>
    <data timestep="48.00">
        <lanes/>
    </data>
    <data timestep="49.00">
        <lanes/>
    </data>
    <data timestep="50.00">
        <lanes/>
    </data>
    <data timestep="51.00">
        <lanes/>
    </data>
    <data timestep="52.00">
        <lanes/>
    </data>
    <data timestep="53.00">
        <lanes/>
    </data>
    <data timestep="54.00">
        <lanes/>
    </data>
    <data timestep="55.00">
        <lanes/>
    </data>
    <data timestep="56.00">
        <lanes/>
    </data>
    <data timestep="57.00">
        <lanes/>
    </data>
    <data timestep="58.00">
        <lanes/>
    </data>
    <data timestep="59.00">
        <lanes/>
    </data>
    <data timestep="60.00">
        <lanes/>
    </data>
    <data timestep="61.00">
        <lanes/>
    </data>
    <data timestep="62.00">
        <lanes/>
    </data>
    <data timestep="63.00">
        <lanes/>
    </data>
    <data timestep="64.00">
        <lanes/>
    </data>
    <data timestep="65.00">
        <lanes/>
    </data>
    <data timestep="66.00">
        <lanes/>
    </data>
    <data timestep="67.00">
        <lanes/>
    </data>
    <data timestep="68.00">
        <lanes/>
    </data>
    <data timestep="69.00">
        <lanes/>
    </data>
    <data timestep="70.00">
        <lanes/>
    </data>
    <data timestep="71.00">
        <lanes/>
    </data>
    <data timestep="72.00">
        <lanes/>
    </data>
    <data timestep="73.00">
        <lanes/>
    </data>
    <data timestep="74.00">
        <lanes/>
    </data>
    <data timestep="75.00">
        <lanes/>
    </data>
    <data timestep="76.00">
        <lanes/>
    </data>
    <data timestep="77.00">
        <lanes/>
    </data>
    <data timestep="78.00">
        <lanes/>
    </data>
    <data timestep="79.00">
        <lanes/>
    </data>
    <data timestep="80.00">
        <lanes/>
    </data>
    <data timestep="81.00">
        <lanes/>
    </data>
    <data timestep="82.00">
        <lanes/>
    </data>
    <data timestep="83.00">
        <lanes/>
    </data>
    <data timestep="84.00">
        <lanes/>
    </data>
    <data timestep="85.00">
        <lanes/>
    </data>
    <data timestep="86.00">
        <lanes/>
    </data>
    <data timestep="87.00">
        <lanes/>
    </data>
    <data timestep="88.00">
        <lanes/>
    </data>
    <data timestep="89.00">
        <lanes/>
    </data>
    <data timestep="90.00">
        <lanes/>
    </data>
    <data timestep="91.00">
        <lanes/>
    </data>
    <data timestep="92.00">
        <lanes/>
    </data>
    <data timestep="93.00">
        <lanes/>
    </data>
    <data timestep="94.00">
        <lanes/>
    </data>
    <data timestep="95.00">
        <lanes/>
    </data>
    <data timestep="96.00">
        <lanes/>
    </data>
    <data timestep="97.00">
        <lanes/>
    </data>
    <data timestep="98.00">
        <lanes/>
    </data>
    <data timestep="99.00">
        <lanes/>
    </data>
    <data timestep="100.00">
        <lanes/>
    </data>
    <data timestep="101.00">
        <lanes/>
    </data>
    <data timestep="102.00">
        <lanes/>
    </data>
    <data timestep="103.00">
        <lanes/>
    </data>
    <data timestep="104.00">
        <lanes/>
    </data>
    <data timestep="105.00">
        <lanes/>
    </data>
    <data timestep="106.00">
        <lanes/>
    </data>
    <data timestep="107.00">
        <lanes/>
    </data>
    <data timestep="108.00">
        <lanes/>
    </data>
    <data timestep="109.00">
        <lanes/>
    </data>
    <data timestep="110.00">
        <lanes/>
    </data>
    <data timestep="111.00">
        <lanes/>
    </data>
    <data timestep="112.00">
        <lanes/>
    </data>
    <data timestep="113.00">
        <lanes/>
    </data>
    <data timestep="114.00">
        <lanes/>
    </data>
    <data timestep="115.00">
        <lanes/>
    </data>
    <data timestep="116.00">
        <lanes/>
    </data>
    <data timestep="117.00">
        <lanes/>
    </data>
    <data timestep="118.00">
        <lanes/>
    </data>
    <data timestep="119.00">
        <lanes/>
    </data>
    <data timestep="120.00">
        <lanes/>
    </data>
    <data timestep="121.00">
        <lanes/>
    </data>
    <data timestep="122.00">
        <lanes/>
    </data>
    <data timestep="123.00">
        <lanes/>
    </data>
    <data timestep="124.00">
        <lanes/>
    </data>
    <data timestep="125.00">
        <lanes/>
    </data>
    <data timestep="126.00">
        <lanes/>
    </data>
    <data timestep="127.00">
        <lanes/>
    </data>
    <data timestep="128.00">
        <lanes/>
    </data>
    <data timestep="129.00">
        <lanes/>
    </data>
    <data timestep="130.00">
        <lanes/>
    </data>
    <data timestep="131.00">
        <lanes/>
    </data>
    <data timestep="132.00">
        <lanes/>
    </data>
    <data timestep="133.00">
        <lanes/>
    </data>
    <data timestep="134.00">
        <lanes/>
    </data>
    <data timestep="135.00">
        <lanes/>
    </data>
    <data timestep="136.00">
        <lanes/>
    </data>
    <data timestep="137.00">
        <lanes/>
    </data>
    <data timestep="138.00">
        <lanes/>
    </data>
    <data timestep="139.00">
        <lanes/>
    </data>
    <data timestep="140.00">
        <lanes/>
    </data>
    <data timestep="141.00">
        <lanes/>
    </data>
    <data timestep="142.00">
        <lanes/>
    </data>
    <data timestep="143.00">
        <lanes/>
    </data>
    <data timestep="144.00">
        <lanes/>
    </data>
    <data timestep="145.00">
        <lanes/>
    </data>
    <data timestep="146.00">
        <lanes/>
    </data>
    <data timestep="147.00">
        <lanes/>
    </data>
    <data timestep="148.00">
        <lanes/>
    </data>
    <data timestep="149.00">
        <lanes/>
    </data>
    <data timestep="150.00">
        <lanes/>
    </data>
    <data timestep="151.00">
        <lanes/>
    </data>
    <data timestep="152.00">
        <lanes/>
    </data>
    <data timestep="153.00">
        <lanes/>
    </data>
    <data timestep="154.00">
        <lanes/>
    </data>
    <data timestep="155.00">
        <lanes/>
    </data>
    <data timestep="156.00">
        <lanes/>
    </data>
    <data timestep="157.00">
        <lanes/>
    </data>
    <data timestep="158.00">
        <lanes/>
    </data>
    <data timestep="159.00">
        <lanes/>
    </data>
    <data timestep="160.00">
        <lanes/>
    </data>
    <data timestep="161.00">
        <lanes/>
    </data>
    <data timestep="162.00">
        <lanes/>
    </data>
    <data timestep="163.00">
        <lanes/>
    </data>
    <data timestep="164.00">
        <lanes/>
    </data>
    <data timestep="165.00">
        <lanes/>
    </data>
    <data timestep="166.00">
        <lanes/>
    </data>
    <data timestep="167.00">
        <lanes/>
    </data>
    <data timestep="168.00">
        <lanes/>
    </data>
    <data timestep="169.00">
        <lanes/>
    </data>
    <data timestep="170.00">
        <lanes/>
    </data>
    <data timestep="171.00">
        <lanes/>
    </data>
    <data timestep="172.00">
        <lanes/>
    </data>
    <data timestep="173.00">
        <lanes/>
    </data>
    <data timestep="174.00">
        <lanes/>
    </data>
    <data timestep="175.00">
        <lanes/>
    </data>
    <data timestep="176.00">
        <lanes/>
    </data>
    <data timestep="177.00">
        <lanes/>
    </data>
    <data timestep="178.00">
        <lanes/>
    </data>
    <data timestep="179.00">
        <lanes/>
    </data>
    <data timestep="180.00">
        <lanes/>
    </data>
    <data timestep="181.00">
        <lanes/>
    </data>
    <data timestep="182.00">
        <lanes/>
    </data>
    <data timestep="183.00">
        <lanes/>
    </data>
    <data timestep="184.00">
        <lanes/>
    </data>
    <data timestep="185.00">
        <lanes/>
    </data>
    <data timestep="186.00">
        <lanes/>
    </data>
    <data timestep="187.00">
        <lanes/>
    </data>
    <data timestep="188.00">
        <lanes/>
    </data>
    <data timestep="189.00">
        <lanes/>
    </data>
    <data timestep="190.00">
        <lanes/>
    </data>
    <data timestep="191.00">
        <lanes/>
    </data>
    <data timestep="192.00">
        <lanes/>
    </data>
    <data timestep="193.00">
        <lanes/>
    </data>
    <data timestep="194.00">
        <lanes>
            <lane id="E2T_1" queueing_time="0.00" queueing_length="0.00" queueing_length_experimental="6.01"/>
        </lanes>
    </data>
    <data timestep="195.00">
        <lanes>
            <lane id="E2T_1" queueing_time="1.00" queueing_length="6.00" queueing_length_experimental="6.00"/>
        </lanes>
    </data>
    <data timestep="196.00">
        <lanes/>
    </data>
    <data timestep="197.00">
        <lanes/>
    </data>
    <data timestep="198.00">
        <lanes/>
    </data>
    <data timestep="199.00">
        <lanes/>
    </data>
    <data timestep="200.00">
        <lanes/>
    </data>
    <data timestep="201.00">
        <lanes/>
    </data>
    <data timestep="202.00">
        <lanes>
            <lane id="E2T_0" queueing_time="1.00" queueing_length="6.02" queueing_length_experimental="6.02"/>
        </lanes>
    </data>
    <data timestep="203.00">
        <lanes>
            <lane id="E2T_0" queueing_time="2.00" queueing_length="6.01" queueing_length_experimental="6.01"/>
        </lanes>
    </data>
    <data timestep="204.00">
        <lanes>
            <lane id="E2T_0" queueing_time="3.00" queueing_length="6.00" queueing_length_experimental="6.00"/>
        </lanes>
    </data>
    <data timestep="205.00">
        <lanes>
            <lane id="E2T_0" queueing_time="4.00" queueing_length="6.00" queueing_length_experimental="6.00"/>
            <lane id="E2T_1" queueing_time="0.00" queueing_length="0.00" queueing_length_experimental="6.04"/>
        </lanes>
    </data>
    <data timestep="206.00">
        <lanes>
            <lane id="E2T_0" queueing_time="5.00" queueing_length="6.00" queueing_length_experimental="6.00"/>
            <lane id="E2T_1" queueing_time="1.00" queueing_length="6.01" queueing_length_experimental="6.01"/>
        </lanes>
    </data>
    <data timestep="207.00">
        <lanes>
            <lane id="E2T_0" queueing_time="6.00" queueing_length="6.00" queueing_length_experimental="6.00"/>
            <lane id="E2T_1" queueing_time="2.00" queueing_length="6.01" queueing_length_experimental="6.01"/>
        </lanes>
    </data>
    <data timestep="208.00">
        <lanes>
            <lane id="E2T_0" queueing_time="0.00" queueing_length="0.00" queueing_length_experimental="5.17"/>
            <lane id="E2T_1" queueing_time="0.00" queueing_length="0.00" queueing_length_experimental="5.00"/>
        </lanes>
    </data>
    <data timestep="209.00">
        <lanes/>
    </data>
    <data timestep="210.00">
        <lanes/>
    </data>
    <data timestep="211.00">
        <lanes/>
    </data>
    <data timestep="212.00">
        <lanes/>
    </data>
    <data timestep="213.00">
        <lanes/>
    </data>
    <data timestep="214.00">
        <lanes/>
    </data>
    <data timestep="215.00">
        <lanes/>
    </data>
    <data timestep="216.00">
        <lanes/>
    </data>
    <data timestep="217.00">
        <lanes/>
    </data>
    <data timestep="218.00">
        <lanes/>
    </data>
    <data timestep="219.00">
        <lanes/>
    </data>
    <data timestep="220.00">
        <lanes/>
    </data>
    <data timestep="221.00">
        <lanes/>
    </data>
    <data timestep="222.00">
        <lanes/>
    </data>
    <data timestep="223.00">
        <lanes/>
    </data>
    <data timestep="224.00">
        <lanes/>
    </data>
    <data timestep="225.00">
        <lanes/>
    </data>
    <data timestep="226.00">
        <lanes/>
    </data>
    <data timestep="227.00">
        <lanes/>
    </data>
    <data timestep="228.00">
        <lanes/>
    </data>
    <data timestep="229.00">
        <lanes/>
    </data>
    <data timestep="230.00">
        <lanes/>
    </data>
    <data timestep="231.00">
        <lanes/>
    </data>
    <data timestep="232.00">
        <lanes/>
    </data>
    <data timestep="233.00">
        <lanes/>
    </data>
    <data timestep="234.00">
        <lanes/>
    </data>
    <data timestep="235.00">
        <lanes/>
    </data>
    <data timestep="236.00">
        <lanes/>
    </data>
    <data timestep="237.00">
        <lanes/>
    </data>
    <data timestep="238.00">
        <lanes/>
    </data>
    <data timestep="239.00">
        <lanes/>
    </data>
    <data timestep="240.00">
        <lanes/>
    </data>
    <data timestep="241.00">
        <lanes/>
    </data>
    <data timestep="242.00">
        <lanes/>
    </data>
    <data timestep="243.00">
        <lanes/>
    </data>
    <data timestep="244.00">
        <lanes>
            <lane id="N2T_1" queueing_time="0.00" queueing_length="0.00" queueing_length_experimental="6.00"/>
        </lanes>
    </data>
    <data timestep="245.00">
        <lanes>
            <lane id="N2T_1" queueing_time="1.00" queueing_length="6.00" queueing_length_experimental="6.00"/>
        </lanes>
    </data>
    <data timestep="246.00">
        <lanes>
            <lane id="N2T_1" queueing_time="2.00" queueing_length="6.00" queueing_length_experimental="6.00"/>
        </lanes>
    </data>
    <data timestep="247.00">
        <lanes/>
    </data>
    <data timestep="248.00">
        <lanes/>
    </data>
    <data timestep="249.00">
        <lanes/>
    </data>
    <data timestep="250.00">
        <lanes/>
    </data>
    <data timestep="251.00">
        <lanes/>
    </data>
    <data timestep="252.00">
        <lanes/>
    </data>
    <data timestep="253.00">
        <lanes/>
    </data>
    <data timestep="254.00">
        <lanes>
            <lane id="E2T_0" queueing_time="1.00" queueing_length="6.05" queueing_length_experimental="6.05"/>
        </lanes>
    </data>
    <data timestep="255.00">
        <lanes>
            <lane id="E2T_0" queueing_time="2.00" queueing_length="6.01" queueing_length_experimental="6.01"/>
        </lanes>
    </data>
    <data timestep="256.00">
        <lanes/>
    </data>
    <data timestep="257.00">
        <lanes/>
    </data>
    <data timestep="258.00">
        <lanes/>
    </data>
    <data timestep="259.00">
        <lanes/>
    </data>
    <data timestep="260.00">
        <lanes/>
    </data>
    <data timestep="261.00">
        <lanes/>
    </data>
    <data timestep="262.00">
        <lanes/>
    </data>
    <data timestep="263.00">
        <lanes/>
    </data>
    <data timestep="264.00">
        <lanes/>
    </data>
    <data timestep="265.00">
        <lanes/>
    </data>
    <data timestep="266.00">
        <lanes/>
    </data>
    <data timestep="267.00">
        <lanes/>
    </data>
    <data timestep="268.00">
        <lanes/>
    </data>
    <data timestep="269.00">
        <lanes/>
    </data>
    <data timestep="270.00">
        <lanes/>
    </data>
    <data timestep="271.00">
        <lanes/>
    </data>
    <data timestep="272.00">
        <lanes/>
    </data>
    <data timestep="273.00">
        <lanes>
            <lane id="W2T_0" queueing_time="1.00" queueing_length="6.02" queueing_length_experimental="6.02"/>
        </lanes>
    </data>
    <data timestep="274.00">
        <lanes>
            <lane id="W2T_0" queueing_time="0.00" queueing_length="0.00" queueing_length_experimental="5.23"/>
        </lanes>
    </data>
    <data timestep="275.00">
        <lanes/>
    </data>
    <data timestep="276.00">
        <lanes/>
    </data>
    <data timestep="277.00">
        <lanes>
            <lane id="E2T_0" queueing_time="0.00" queueing_length="0.00" queueing_length_experimental="6.34"/>
        </lanes>
    </data>
    <data timestep="278.00">
        <lanes>
            <lane id="E2T_0" queueing_time="0.00" queueing_length="0.00" queueing_length_experimental="6.01"/>
        </lanes>
    </data>
    <data timestep="279.00">
        <lanes>
            <lane id="E2T_0" queueing_time="1.00" queueing_length="6.01" queueing_length_experimental="6.01"/>
        </lanes>
    </data>
    <data timestep="280.00">
        <lanes>
            <lane id="E2T_0" queueing_time="0.00" queueing_length="0.00" queueing_length_experimental="5.41"/>
        </lanes>
    </data>
    <data timestep="281.00">
        <lanes/>
    </data>
    <data timestep="282.00">
        <lanes/>
    </data>
    <data timestep="283.00">
        <lanes/>
    </data>
    <data timestep="284.00">
        <lanes/>
    </data>
    <data timestep="285.00">
        <lanes/>
    </data>
    <data timestep="286.00">
        <lanes/>
    </data>
    <data timestep="287.00">
        <lanes/>
    </data>
    <data timestep="288.00">
        <lanes>
            <lane id="S2T_0" queueing_time="0.00" queueing_length="0.00" queueing_length_experimental="6.09"/>
        </lanes>
    </data>
    <data timestep="289.00">
        <lanes/>
    </data>
    <data timestep="290.00">
        <lanes/>
    </data>
    <data timestep="291.00">
        <lanes/>
    </data>
    <data timestep="292.00">
        <lanes>
            <lane id="S2T_1" queueing_time="0.00" queueing_length="0.00" queueing_length_experimental="6.02"/>
        </lanes>
    </data>
    <data timestep="293.00">
        <lanes>
            <lane id="N2T_1" queueing_time="0.00" queueing_length="0.00" queueing_length_experimental="6.01"/>
            <lane id="S2T_1" queueing_time="1.00" queueing_length="6.00" queueing_length_experimental="6.00"/>
        </lanes>
    </data>
    <data timestep="294.00">
        <lanes>
            <lane id="N2T_1" queueing_time="1.00" queueing_length="6.00" queueing_length_experimental="6.00"/>
            <lane id="S2T_1" queueing_time="2.00" queueing_length="6.00" queueing_length_experimental="6.00"/>
        </lanes>
    </data>
    <data timestep="295.00">
        <lanes>
            <lane id="S2T_1" queueing_time="3.00" queueing_length="6.00" queueing_length_experimental="6.00"/>
        </lanes>
    </data>
    <data timestep="296.00">
        <lanes>
            <lane id="S2T_1" queueing_time="4.00" queueing_length="6.00" queueing_length_experimental="6.00"/>
        </lanes>
    </data>
    <data timestep="297.00">
        <lanes>
            <lane id="S2T_0" queueing_time="5.00" queueing_length="6.00" queueing_length_experimental="6.00"/>
        </lanes>
    </data>
    <data timestep="298.00">
        <lanes>
            <lane id="S2T_0" queueing_time="6.00" queueing_length="6.00" queueing_length_experimental="6.00"/>
        </lanes>
    </data>
    <data timestep="299.00">
        <lanes>
            <lane id="S2T_0" queueing_time="7.00" queueing_length="6.00" queueing_length_experimental="6.00"/>
        </lanes>
    </data>
    <data timestep="300.00">
        <lanes>
            <lane id="S2T_0" queueing_time="8.00" queueing_length="6.00" queueing_length_experimental="6.00"/>
        </lanes>
    </data>
    <data timestep="301.00">
        <lanes>
            <lane id="S2T_0" queueing_time="0.00" queueing_length="0.00" queueing_length_experimental="5.04"/>
        </lanes>
    </data>
    <data timestep="302.00">
        <lanes/>
    </data>
    <data timestep="303.00">
        <lanes/>
    </data>
    <data timestep="304.00">
        <lanes/>
    </data>
    <data timestep="305.00">
        <lanes/>
    </data>
    <data timestep="306.00">
        <lanes/>
    </data>
    <data timestep="307.00">
        <lanes>
            <lane id="S2T_1" queueing_time="1.00" queueing_length="6.00" queueing_length_experimental="6.00"/>
        </lanes>
    </data>
    <data timestep="308.00">
        <lanes>
            <lane id="S2T_1" queueing_time="2.00" queueing_length="6.00" queueing_length_experimental="6.00"/>
        </lanes>
    </data>
    <data timestep="309.00">
        <lanes>
            <lane id="S2T_0" queueing_time="3.00" queueing_length="6.00" queueing_length_experimental="6.00"/>
        </lanes>
    </data>
    <data timestep="310.00">
        <lanes>
            <lane id="S2T_0" queueing_time="4.00" queueing_length="6.00" queueing_length_experimental="6.00"/>
        </lanes>
    </data>
    <data timestep="311.00">
        <lanes>
            <lane id="S2T_0" queueing_time="5.00" queueing_length="6.00" queueing_length_experimental="6.00"/>
        </lanes>
    </data>
    <data timestep="312.00">
        <lanes>
            <lane id="S2T_0" queueing_time="6.00" queueing_length="6.00" queueing_length_experimental="6.00"/>
        </lanes>
    </data>
    <data timestep="313.00">
        <lanes>
            <lane id="S2T_0" queueing_time="0.00" queueing_length="0.00" queueing_length_experimental="5.34"/>
        </lanes>
    </data>
    <data timestep="314.00">
        <lanes/>
    </data>
    <data timestep="315.00">
        <lanes/>
    </data>
    <data timestep="316.00">
        <lanes/>
    </data>
    <data timestep="317.00">
        <lanes/>
    </data>
    <data timestep="318.00">
        <lanes/>
    </data>
    <data timestep="319.00">
        <lanes/>
    </data>
    <data timestep="320.00">
        <lanes/>
    </data>
    <data timestep="321.00">
        <lanes/>
    </data>
    <data timestep="322.00">
        <lanes/>
    </data>
    <data timestep="323.00">
        <lanes/>
    </data>
    <data timestep="324.00">
        <lanes/>
    </data>
    <data timestep="325.00">
        <lanes/>
    </data>
    <data timestep="326.00">
        <lanes/>
    </data>
    <data timestep="327.00">
        <lanes/>
    </data>
    <data timestep="328.00">
        <lanes/>
    </data>
    <data timestep="329.00">
        <lanes/>
    </data>
    <data timestep="330.00">
        <lanes/>
    </data>
    <data timestep="331.00">
        <lanes/>
    </data>
    <data timestep="332.00">
        <lanes/>
    </data>
    <data timestep="333.00">
        <lanes/>
    </data>
    <data timestep="334.00">
        <lanes/>
    </data>
    <data timestep="335.00">
        <lanes/>
    </data>
    <data timestep="336.00">
        <lanes>
            <lane id="N2T_0" queueing_time="0.00" queueing_length="0.00" queueing_length_experimental="6.13"/>
        </lanes>
    </data>
    <data timestep="337.00">
        <lanes>
            <lane id="E2T_0" queueing_time="1.00" queueing_length="6.02" queueing_length_experimental="6.02"/>
            <lane id="N2T_0" queueing_time="1.00" queueing_length="6.03" queueing_length_experimental="6.03"/>
        </lanes>
    </data>
    <data timestep="338.00">
        <lanes>
            <lane id="E2T_0" queueing_time="2.00" queueing_length="6.01" queueing_length_experimental="6.01"/>
            <lane id="N2T_0" queueing_time="2.00" queueing_length="6.02" queueing_length_experimental="6.02"/>
        </lanes>
    </data>
    <data timestep="339.00">
        <lanes>
            <lane id="E2T_0" queueing_time="3.00" queueing_length="6.00" queueing_length_experimental="6.00"/>
            <lane id="N2T_0" queueing_time="3.00" queueing_length="6.00" queueing_length_experimental="6.00"/>
        </lanes>
    </data>
    <data timestep="340.00">
        <lanes>
            <lane id="E2T_0" queueing_time="0.00" queueing_length="0.00" queueing_length_experimental="5.30"/>
            <lane id="N2T_0" queueing_time="4.00" queueing_length="6.00" queueing_length_experimental="6.00"/>
        </lanes>
    </data>
    <data timestep="341.00">
        <lanes>
            <lane id="N2T_0" queueing_time="5.00" queueing_length="6.00" queueing_length_experimental="6.00"/>
        </lanes>
    </data>
    <data timestep="342.00">
        <lanes>
            <lane id="N2T_0" queueing_time="6.00" queueing_length="6.00" queueing_length_experimental="6.00"/>
            <lane id="N2T_1" queueing_time="1.00" queueing_length="6.00" queueing_length_experimental="6.00"/>
        </lanes>
    </data>
    <data timestep="343.00">
        <lanes>
            <lane id="N2T_0" queueing_time="0.00" queueing_length="0.00" queueing_length_experimental="5.23"/>
            <lane id="N2T_1" queueing_time="0.00" queueing_length="0.00" queueing_length_experimental="5.09"/>
        </lanes>
    </data>
    <data timestep="344.00">
        <lanes/>
    </data>
    <data timestep="345.00">
        <lanes/>
    </data>
    <data timestep="346.00">
        <lanes/>
    </data>
    <data timestep="347.00">
        <lanes/>
    </data>
    <data timestep="348.00">
        <lanes/>
    </data>
    <data timestep="349.00">
        <lanes/>
    </data>
    <data timestep="350.00">
        <lanes>
            <lane id="E2T_1" queueing_time="0.00" queueing_length="0.00" queueing_length_experimental="6.12"/>
        </lanes>
    </data>
    <data timestep="351.00">
        <lanes>
            <lane id="E2T_1" queueing_time="0.00" queueing_length="0.00" queueing_length_experimental="6.01"/>
        </lanes>
    </data>
    <data timestep="352.00">
        <lanes>
            <lane id="E2T_1" queueing_time="0.00" queueing_length="0.00" queueing_length_experimental="13.60"/>
        </lanes>
    </data>
    <data timestep="353.00">
        <lanes>
            <lane id="E2T_1" queueing_time="0.00" queueing_length="0.00" queueing_length_experimental="12.83"/>
            <lane id="N2T_0" queueing_time="1.00" queueing_length="6.00" queueing_length_experimental="6.00"/>
        </lanes>
    </data>
    <data timestep="354.00">
        <lanes>
            <lane id="E2T_1" queueing_time="0.00" queueing_length="0.00" queueing_length_experimental="11.46"/>
            <lane id="N2T_0" queueing_time="2.00" queueing_length="6.00" queueing_length_experimental="6.00"/>
        </lanes>
    </data>
    <data timestep="355.00">
        <lanes>
            <lane id="N2T_0" queueing_time="0.00" queueing_length="0.00" queueing_length_experimental="5.31"/>
        </lanes>
    </data>
    <data timestep="356.00">
        <lanes/>
    </data>
    <data timestep="357.00">
        <lanes>
            <lane id="E2T_1" queueing_time="0.00" queueing_length="0.00" queueing_length_experimental="6.11"/>
        </lanes>
    </data>
    <data timestep="358.00">
        <lanes>