<?xml version="1.0" encoding="UTF-8"?>

<!-- generated on Mon 29 Mar 06:02:49 2021 by Eclipse SUMO GUI Version 1.8.0
<configuration xmlns:xsi="http://www.w3.org/2001/XMLSchema-instance" xsi:noNamespaceSchemaLocation="http://sumo.dlr.de/xsd/sumoConfiguration.xsd">

    <input>
        <net-file value="simpleMap.net.xml"/>
        <route-files value="passenger_routes.rou.xml,bus_routes.rou.xml,truck_routes.rou.xml,delivery_routes.rou.xml"/>
        <additional-files value="add_macro.xml"/>
    </input>

    <output>
        <queue-output value="queuedata.xml"/>
    </output>

    <traci_server>
        <remote-port value="54094"/>
    </traci_server>

</configuration>
-->

<queue-export xmlns:xsi="http://www.w3.org/2001/XMLSchema-instance" xsi:noNamespaceSchemaLocation="http://sumo.dlr.de/xsd/queue_file.xsd">
    <data timestep="0.00">
        <lanes/>
    </data>
    <data timestep="1.00">
        <lanes/>
    </data>
    <data timestep="2.00">
        <lanes/>
    </data>
    <data timestep="3.00">
        <lanes/>
    </data>
    <data timestep="4.00">
        <lanes/>
    </data>
    <data timestep="5.00">
        <lanes/>
    </data>
    <data timestep="6.00">
        <lanes/>
    </data>
    <data timestep="7.00">
        <lanes/>
    </data>
    <data timestep="8.00">
        <lanes/>
    </data>
    <data timestep="9.00">
        <lanes/>
    </data>
    <data timestep="10.00">
        <lanes/>
    </data>
    <data timestep="11.00">
        <lanes/>
    </data>
    <data timestep="12.00">
        <lanes/>
    </data>
    <data timestep="13.00">
        <lanes/>
    </data>
    <data timestep="14.00">
        <lanes/>
    </data>
    <data timestep="15.00">
        <lanes/>
    </data>
    <data timestep="16.00">
        <lanes/>
    </data>
    <data timestep="17.00">
        <lanes/>
    </data>
    <data timestep="18.00">
        <lanes/>
    </data>
    <data timestep="19.00">
        <lanes/>
    </data>
    <data timestep="20.00">
        <lanes/>
    </data>
    <data timestep="21.00">
        <lanes/>
    </data>
    <data timestep="22.00">
        <lanes>
            <lane id="-gneE5_0" queueing_time="0.00" queueing_length="0.00" queueing_length_experimental="6.03"/>
        </lanes>
    </data>
    <data timestep="23.00">
        <lanes>
            <lane id="-gneE5_0" queueing_time="1.00" queueing_length="6.01" queueing_length_experimental="6.01"/>
        </lanes>
    </data>
    <data timestep="24.00">
        <lanes>
            <lane id="-gneE5_0" queueing_time="2.00" queueing_length="6.00" queueing_length_experimental="6.00"/>
        </lanes>
    </data>
    <data timestep="25.00">
        <lanes>
            <lane id="-gneE3_0" queueing_time="0.00" queueing_length="0.00" queueing_length_experimental="6.05"/>
            <lane id="-gneE5_0" queueing_time="3.00" queueing_length="6.00" queueing_length_experimental="6.00"/>
        </lanes>
    </data>
    <data timestep="26.00">
        <lanes>
            <lane id="-gneE3_0" queueing_time="1.00" queueing_length="6.02" queueing_length_experimental="6.02"/>
            <lane id="-gneE5_0" queueing_time="4.00" queueing_length="6.00" queueing_length_experimental="6.00"/>
        </lanes>
    </data>
    <data timestep="27.00">
        <lanes>
            <lane id="-gneE3_0" queueing_time="2.00" queueing_length="6.00" queueing_length_experimental="6.00"/>
            <lane id="-gneE5_0" queueing_time="5.00" queueing_length="6.00" queueing_length_experimental="6.00"/>
        </lanes>
    </data>
    <data timestep="28.00">
        <lanes>
            <lane id="-gneE3_0" queueing_time="3.00" queueing_length="6.00" queueing_length_experimental="6.00"/>
            <lane id="-gneE5_0" queueing_time="6.00" queueing_length="6.00" queueing_length_experimental="6.00"/>
        </lanes>
    </data>
    <data timestep="29.00">
        <lanes>
            <lane id="-gneE3_0" queueing_time="4.00" queueing_length="6.00" queueing_length_experimental="13.67"/>
            <lane id="-gneE5_0" queueing_time="7.00" queueing_length="6.00" queueing_length_experimental="20.56"/>
        </lanes>
    </data>
    <data timestep="30.00">
        <lanes>
            <lane id="-gneE3_0" queueing_time="5.00" queueing_length="6.00" queueing_length_experimental="13.54"/>
            <lane id="-gneE5_0" queueing_time="8.00" queueing_length="20.52" queueing_length_experimental="20.52"/>
        </lanes>
    </data>
    <data timestep="31.00">
        <lanes>
            <lane id="-gneE3_0" queueing_time="6.00" queueing_length="13.51" queueing_length_experimental="13.51"/>
            <lane id="-gneE5_0" queueing_time="9.00" queueing_length="20.51" queueing_length_experimental="30.22"/>
        </lanes>
    </data>
    <data timestep="32.00">
        <lanes>
            <lane id="-gneE3_0" queueing_time="7.00" queueing_length="13.51" queueing_length_experimental="21.12"/>
            <lane id="-gneE5_0" queueing_time="10.00" queueing_length="30.15" queueing_length_experimental="39.85"/>
            <lane id="gneE0_0" queueing_time="0.00" queueing_length="0.00" queueing_length_experimental="6.03"/>
        </lanes>
    </data>
    <data timestep="33.00">
        <lanes>
            <lane id="-gneE3_0" queueing_time="8.00" queueing_length="21.03" queueing_length_experimental="21.03"/>
            <lane id="-gneE5_0" queueing_time="11.00" queueing_length="30.13" queueing_length_experimental="39.29"/>
            <lane id="gneE0_0" queueing_time="1.00" queueing_length="6.00" queueing_length_experimental="6.00"/>
        </lanes>
    </data>
    <data timestep="34.00">
        <lanes>
            <lane id="-gneE1_0" queueing_time="0.00" queueing_length="0.00" queueing_length_experimental="6.09"/>
            <lane id="-gneE3_0" queueing_time="4.00" queueing_length="21.01" queueing_length_experimental="21.01"/>
            <lane id="-gneE5_0" queueing_time="12.00" queueing_length="30.11" queueing_length_experimental="47.16"/>
            <lane id="gneE0_0" queueing_time="2.00" queueing_length="6.00" queueing_length_experimental="6.00"/>
        </lanes>
    </data>
    <data timestep="35.00">
        <lanes>
            <lane id="-gneE1_0" queueing_time="1.00" queueing_length="6.02" queueing_length_experimental="13.96"/>
            <lane id="-gneE3_0" queueing_time="3.00" queueing_length="21.01" queueing_length_experimental="21.01"/>
            <lane id="-gneE5_0" queueing_time="13.00" queueing_length="39.13" queueing_length_experimental="46.85"/>
            <lane id="gneE0_0" queueing_time="3.00" queueing_length="6.00" queueing_length_experimental="6.00"/>
        </lanes>
    </data>
    <data timestep="36.00">
        <lanes>
            <lane id="-gneE1_0" queueing_time="2.00" queueing_length="6.00" queueing_length_experimental="13.68"/>
            <lane id="-gneE3_0" queueing_time="0.00" queueing_length="0.00" queueing_length_experimental="20.13"/>
            <lane id="-gneE5_0" queueing_time="14.00" queueing_length="39.11" queueing_length_experimental="54.40"/>
            <lane id="gneE0_0" queueing_time="4.00" queueing_length="6.00" queueing_length_experimental="13.52"/>
        </lanes>
    </data>
    <data timestep="37.00">
        <lanes>
            <lane id="-gneE1_0" queueing_time="3.00" queueing_length="6.00" queueing_length_experimental="21.58"/>
            <lane id="-gneE5_0" queueing_time="15.00" queueing_length="46.66" queueing_length_experimental="54.30"/>
            <lane id="gneE0_0" queueing_time="5.00" queueing_length="13.50" queueing_length_experimental="13.50"/>
        </lanes>
    </data>
    <data timestep="38.00">
        <lanes>
            <lane id="-gneE1_0" queueing_time="4.00" queueing_length="13.52" queueing_length_experimental="21.16"/>
            <lane id="-gneE5_0" queueing_time="16.00" queueing_length="54.21" queueing_length_experimental="54.21"/>
            <lane id="gneE0_0" queueing_time="6.00" queueing_length="13.50" queueing_length_experimental="13.50"/>
        </lanes>
    </data>
    <data timestep="39.00">
        <lanes>
            <lane id="-gneE1_0" queueing_time="5.00" queueing_length="13.51" queueing_length_experimental="21.05"/>
            <lane id="-gneE5_0" queueing_time="17.00" queueing_length="54.14" queueing_length_experimental="61.71"/>
            <lane id="gneE0_0" queueing_time="7.00" queueing_length="13.50" queueing_length_experimental="13.50"/>
        </lanes>
    </data>
    <data timestep="40.00">
        <lanes>
            <lane id="-gneE1_0" queueing_time="6.00" queueing_length="21.02" queueing_length_experimental="21.02"/>
            <lane id="-gneE5_0" queueing_time="18.00" queueing_length="61.66" queueing_length_experimental="61.66"/>
            <lane id="gneE0_0" queueing_time="8.00" queueing_length="21.01" queueing_length_experimental="21.01"/>
        </lanes>
    </data>
    <data timestep="41.00">
        <lanes>
            <lane id="-gneE1_0" queueing_time="7.00" queueing_length="21.01" queueing_length_experimental="21.01"/>
            <lane id="-gneE5_0" queueing_time="19.00" queueing_length="61.64" queueing_length_experimental="61.64"/>
            <lane id="gneE0_0" queueing_time="9.00" queueing_length="21.00" queueing_length_experimental="28.58"/>
        </lanes>
    </data>
    <data timestep="42.00">
        <lanes>
            <lane id="-gneE1_0" queueing_time="8.00" queueing_length="21.01" queueing_length_experimental="21.01"/>
            <lane id="-gneE5_0" queueing_time="20.00" queueing_length="61.61" queueing_length_experimental="61.61"/>
            <lane id="gneE0_0" queueing_time="10.00" queueing_length="28.51" queueing_length_experimental="28.51"/>
        </lanes>
    </data>
    <data timestep="43.00">
        <lanes>
            <lane id="-gneE1_0" queueing_time="9.00" queueing_length="21.00" queueing_length_experimental="28.78"/>
            <lane id="-gneE5_0" queueing_time="21.00" queueing_length="69.11" queueing_length_experimental="69.11"/>
            <lane id="gneE0_0" queueing_time="11.00" queueing_length="28.51" queueing_length_experimental="28.51"/>
        </lanes>
    </data>
    <data timestep="44.00">
        <lanes>
            <lane id="-gneE1_0" queueing_time="10.00" queueing_length="21.00" queueing_length_experimental="28.58"/>
            <lane id="-gneE5_0" queueing_time="22.00" queueing_length="69.11" queueing_length_experimental="69.11"/>
            <lane id="gneE0_0" queueing_time="12.00" queueing_length="28.50" queueing_length_experimental="36.37"/>
        </lanes>
    </data>
    <data timestep="45.00">
        <lanes>
            <lane id="-gneE1_0" queueing_time="11.00" queueing_length="28.53" queueing_length_experimental="28.53"/>
            <lane id="-gneE5_0" queueing_time="23.00" queueing_length="69.11" queueing_length_experimental="69.11"/>
            <lane id="gneE0_0" queueing_time="13.00" queueing_length="28.50" queueing_length_experimental="44.20"/>
        </lanes>
    </data>
    <data timestep="46.00">
        <lanes>
            <lane id="-gneE1_0" queueing_time="12.00" queueing_length="28.51" queueing_length_experimental="28.51"/>
            <lane id="-gneE5_0" queueing_time="24.00" queueing_length="69.11" queueing_length_experimental="76.65"/>
            <lane id="gneE0_0" queueing_time="14.00" queueing_length="36.02" queueing_length_experimental="43.83"/>
        </lanes>
    </data>
    <data timestep="47.00">
        <lanes>
            <lane id="-gneE1_0" queueing_time="13.00" queueing_length="28.50" queueing_length_experimental="28.50"/>
            <lane id="-gneE5_0" queueing_time="25.00" queueing_length="76.62" queueing_length_experimental="76.62"/>
            <lane id="gneE0_0" queueing_time="15.00" queueing_length="36.01" queueing_length_experimental="43.60"/>
        </lanes>
    </data>
    <data timestep="48.00">
        <lanes>
            <lane id="-gneE1_0" queueing_time="14.00" queueing_length="28.50" queueing_length_experimental="28.50"/>
            <lane id="-gneE5_0" queueing_time="26.00" queueing_length="76.61" queueing_length_experimental="76.61"/>
            <lane id="gneE0_0" queueing_time="16.00" queueing_length="43.54" queueing_length_experimental="43.54"/>
        </lanes>
    </data>
    <data timestep="49.00">
        <lanes>
            <lane id="-gneE1_0" queueing_time="15.00" queueing_length="28.50" queueing_length_experimental="28.50"/>
            <lane id="-gneE5_0" queueing_time="27.00" queueing_length="76.61" queueing_length_experimental="76.61"/>
            <lane id="gneE0_0" queueing_time="17.00" queueing_length="43.52" queueing_length_experimental="43.52"/>
        </lanes>
    </data>
    <data timestep="50.00">
        <lanes>
            <lane id="-gneE1_0" queueing_time="16.00" queueing_length="28.50" queueing_length_experimental="36.14"/>
            <lane id="-gneE5_0" queueing_time="28.00" queueing_length="76.61" queueing_length_experimental="76.61"/>
            <lane id="gneE0_0" queueing_time="18.00" queueing_length="43.51" queueing_length_experimental="43.51"/>
        </lanes>
    </data>
    <data timestep="51.00">
        <lanes>
            <lane id="-gneE1_0" queueing_time="17.00" queueing_length="36.05" queueing_length_experimental="36.05"/>
            <lane id="-gneE5_0" queueing_time="29.00" queueing_length="86.21" queueing_length_experimental="86.21"/>
            <lane id="gneE0_0" queueing_time="19.00" queueing_length="43.51" queueing_length_experimental="51.16"/>
        </lanes>
    </data>
    <data timestep="52.00">
        <lanes>
            <lane id="-gneE1_0" queueing_time="18.00" queueing_length="36.01" queueing_length_experimental="43.66"/>
            <lane id="-gneE5_0" queueing_time="30.00" queueing_length="86.21" queueing_length_experimental="93.91"/>
            <lane id="gneE0_0" queueing_time="20.00" queueing_length="43.51" queueing_length_experimental="51.05"/>
        </lanes>
    </data>
    <data timestep="53.00">
        <lanes>
            <lane id="-gneE1_0" queueing_time="19.00" queueing_length="36.01" queueing_length_experimental="43.54"/>
            <lane id="-gneE5_0" queueing_time="31.00" queueing_length="86.21" queueing_length_experimental="93.76"/>
            <lane id="gneE0_0" queueing_time="21.00" queueing_length="51.03" queueing_length_experimental="58.85"/>
        </lanes>
    </data>
    <data timestep="54.00">
        <lanes>
            <lane id="-gneE1_0" queueing_time="20.00" queueing_length="43.52" queueing_length_experimental="43.52"/>
            <lane id="-gneE5_0" queueing_time="32.00" queueing_length="93.72" queueing_length_experimental="101.60"/>
            <lane id="gneE0_0" queueing_time="22.00" queueing_length="51.01" queueing_length_experimental="58.55"/>
        </lanes>
    </data>
    <data timestep="55.00">
        <lanes>
            <lane id="-gneE1_0" queueing_time="21.00" queueing_length="51.04" queueing_length_experimental="51.04"/>
            <lane id="-gneE5_0" queueing_time="33.00" queueing_length="93.71" queueing_length_experimental="109.24"/>
            <lane id="gneE0_0" queueing_time="23.00" queueing_length="58.53" queueing_length_experimental="66.19"/>
        </lanes>
    </data>
    <data timestep="56.00">
        <lanes>
            <lane id="-gneE1_0" queueing_time="22.00" queueing_length="51.02" queueing_length_experimental="51.02"/>
            <lane id="-gneE5_0" queueing_time="34.00" queueing_length="93.71" queueing_length_experimental="109.00"/>
            <lane id="gneE0_0" queueing_time="24.00" queueing_length="66.11" queueing_length_experimental="66.11"/>
        </lanes>
    </data>
    <data timestep="57.00">
        <lanes>
            <lane id="-gneE1_0" queueing_time="23.00" queueing_length="51.01" queueing_length_experimental="51.01"/>
            <lane id="-gneE5_0" queueing_time="35.00" queueing_length="101.22" queueing_length_experimental="108.87"/>
            <lane id="gneE0_0" queueing_time="25.00" queueing_length="66.02" queueing_length_experimental="73.68"/>
        </lanes>
    </data>
    <data timestep="58.00">
        <lanes>
            <lane id="-gneE1_0" queueing_time="24.00" queueing_length="51.01" queueing_length_experimental="51.01"/>
            <lane id="-gneE5_0" queueing_time="36.00" queueing_length="101.22" queueing_length_experimental="108.76"/>
            <lane id="gneE0_0" queueing_time="26.00" queueing_length="66.02" queueing_length_experimental="73.58"/>
        </lanes>
    </data>
    <data timestep="59.00">
        <lanes>
            <lane id="-gneE1_0" queueing_time="25.00" queueing_length="51.01" queueing_length_experimental="51.01"/>
            <lane id="-gneE5_0" queueing_time="37.00" queueing_length="108.72" queueing_length_experimental="108.72"/>
            <lane id="gneE0_0" queueing_time="27.00" queueing_length="73.54" queueing_length_experimental="73.54"/>
        </lanes>
    </data>
    <data timestep="60.00">
        <lanes>
            <lane id="-gneE1_0" queueing_time="26.00" queueing_length="51.01" queueing_length_experimental="51.01"/>
            <lane id="-gneE5_0" queueing_time="38.00" queueing_length="108.71" queueing_length_experimental="108.71"/>
            <lane id="gneE0_0" queueing_time="28.00" queueing_length="73.52" queueing_length_experimental="73.52"/>
        </lanes>
    </data>
    <data timestep="61.00">
        <lanes>
            <lane id="-gneE1_0" queueing_time="27.00" queueing_length="51.01" queueing_length_experimental="51.01"/>
            <lane id="-gneE5_0" queueing_time="39.00" queueing_length="108.71" queueing_length_experimental="108.71"/>
            <lane id="gneE0_0" queueing_time="29.00" queueing_length="81.07" queueing_length_experimental="81.07"/>
        </lanes>
    </data>
    <data timestep="62.00">
        <lanes>
            <lane id="-gneE1_0" queueing_time="28.00" queueing_length="51.01" queueing_length_experimental="51.01"/>
            <lane id="-gneE5_0" queueing_time="40.00" queueing_length="108.71" queueing_length_experimental="108.71"/>
            <lane id="gneE0_0" queueing_time="30.00" queueing_length="81.02" queueing_length_experimental="81.02"/>
        </lanes>
    </data>
    <data timestep="63.00">
        <lanes>
            <lane id="-gneE1_0" queueing_time="29.00" queueing_length="58.51" queueing_length_experimental="58.51"/>
            <lane id="-gneE5_0" queueing_time="41.00" queueing_length="108.71" queueing_length_experimental="108.71"/>
            <lane id="gneE0_0" queueing_time="31.00" queueing_length="88.56" queueing_length_experimental="88.56"/>
        </lanes>
    </data>
    <data timestep="64.00">
        <lanes>
            <lane id="-gneE1_0" queueing_time="30.00" queueing_length="58.51" queueing_length_experimental="58.51"/>
            <lane id="-gneE5_0" queueing_time="42.00" queueing_length="108.71" queueing_length_experimental="108.71"/>
            <lane id="gneE0_0" queueing_time="32.00" queueing_length="88.53" queueing_length_experimental="88.53"/>
        </lanes>
    </data>
    <data timestep="65.00">
        <lanes>
            <lane id="-gneE1_0" queueing_time="31.00" queueing_length="58.51" queueing_length_experimental="58.51"/>
            <lane id="-gneE5_0" queueing_time="43.00" queueing_length="108.71" queueing_length_experimental="108.71"/>
            <lane id="gneE0_0" queueing_time="33.00" queueing_length="88.52" queueing_length_experimental="96.12"/>
        </lanes>
    </data>
    <data timestep="66.00">
        <lanes>
            <lane id="-gneE1_0" queueing_time="32.00" queueing_length="58.51" queueing_length_experimental="66.32"/>
            <lane id="-gneE3_0" queueing_time="0.00" queueing_length="0.00" queueing_length_experimental="6.64"/>
            <lane id="-gneE5_0" queueing_time="44.00" queueing_length="108.71" queueing_length_experimental="108.71"/>
            <lane id="gneE0_0" queueing_time="34.00" queueing_length="96.03" queueing_length_experimental="96.03"/>
        </lanes>
    </data>
    <data timestep="67.00">
        <lanes>
            <lane id="-gneE1_0" queueing_time="33.00" queueing_length="58.51" queueing_length_experimental="66.15"/>
            <lane id="-gneE3_0" queueing_time="0.00" queueing_length="0.00" queueing_length_experimental="15.00"/>
            <lane id="-gneE5_0" queueing_time="45.00" queueing_length="108.71" queueing_length_experimental="108.71"/>
            <lane id="gneE0_0" queueing_time="31.00" queueing_length="96.02" queueing_length_experimental="96.02"/>
        </lanes>
    </data>
    <data timestep="68.00">
        <lanes>
            <lane id="-gneE1_0" queueing_time="34.00" queueing_length="66.07" queueing_length_experimental="66.07"/>
            <lane id="-gneE3_0" queueing_time="0.00" queueing_length="0.00" queueing_length_experimental="14.18"/>
            <lane id="-gneE5_0" queueing_time="46.00" queueing_length="108.71" queueing_length_experimental="108.71"/>
            <lane id="gneE0_0" queueing_time="29.00" queueing_length="96.01" queueing_length_experimental="103.56"/>
        </lanes>
    </data>
    <data timestep="69.00">
        <lanes>
            <lane id="-gneE1_0" queueing_time="35.00" queueing_length="66.04" queueing_length_experimental="66.04"/>
            <lane id="-gneE3_0" queueing_time="1.00" queueing_length="6.00" queueing_length_experimental="13.79"/>
            <lane id="-gneE5_0" queueing_time="47.00" queueing_length="108.71" queueing_length_experimental="108.71"/>
            <lane id="gneE0_0" queueing_time="28.00" queueing_length="103.53" queueing_length_experimental="103.53"/>
        </lanes>
    </data>
    <data timestep="70.00">
        <lanes>
            <lane id="-gneE1_0" queueing_time="36.00" queueing_length="66.01" queueing_length_experimental="66.01"/>
            <lane id="-gneE3_0" queueing_time="2.00" queueing_length="6.00" queueing_length_experimental="13.53"/>
            <lane id="-gneE5_0" queueing_time="48.00" queueing_length="108.71" queueing_length_experimental="108.71"/>
            <lane id="gneE0_0" queueing_time="25.00" queueing_length="103.52" queueing_length_experimental="103.52"/>
        </lanes>
    </data>
    <data timestep="71.00">
        <lanes>
            <lane id="-gneE1_0" queueing_time="37.00" queueing_length="66.01" queueing_length_experimental="66.01"/>
            <lane id="-gneE3_0" queueing_time="3.00" queueing_length="13.51" queueing_length_experimental="13.51"/>
            <lane id="-gneE5_0" queueing_time="49.00" queueing_length="108.71" queueing_length_experimental="108.71"/>
            <lane id="gneE0_0" queueing_time="24.00" queueing_length="103.52" queueing_length_experimental="103.52"/>
        </lanes>
    </data>
    <data timestep="72.00">
        <lanes>
            <lane id="-gneE1_0" queueing_time="38.00" queueing_length="66.01" queueing_length_experimental="66.01"/>
            <lane id="-gneE3_0" queueing_time="4.00" queueing_length="13.50" queueing_length_experimental="13.50"/>
            <lane id="-gneE5_0" queueing_time="50.00" queueing_length="108.71" queueing_length_experimental="108.71"/>
            <lane id="gneE0_0" queueing_time="20.00" queueing_length="103.52" queueing_length_experimental="103.52"/>
        </lanes>
    </data>
    <data timestep="73.00">
        <lanes>
            <lane id="-gneE1_0" queueing_time="39.00" queueing_length="66.01" queueing_length_experimental="66.01"/>
            <lane id="-gneE3_0" queueing_time="5.00" queueing_length="13.50" queueing_length_experimental="13.50"/>
            <lane id="-gneE5_0" queueing_time="51.00" queueing_length="108.71" queueing_length_experimental="108.71"/>
            <lane id="gneE0_0" queueing_time="19.00" queueing_length="103.51" queueing_length_experimental="103.51"/>
        </lanes>
    </data>
    <data timestep="74.00">
        <lanes>
            <lane id="-gneE1_0" queueing_time="40.00" queueing_length="66.01" queueing_length_experimental="66.01"/>
            <lane id="-gneE3_0" queueing_time="6.00" queueing_length="13.50" queueing_length_experimental="13.50"/>
            <lane id="-gneE5_0" queueing_time="52.00" queueing_length="108.71" queueing_length_experimental="108.71"/>
            <lane id="gneE0_0" queueing_time="19.00" queueing_length="103.51" queueing_length_experimental="103.51"/>
        </lanes>
    </data>
    <data timestep="75.00">
        <lanes>
            <lane id="-gneE1_0" queueing_time="41.00" queueing_length="66.01" queueing_length_experimental="66.01"/>
            <lane id="-gneE3_0" queueing_time="7.00" queueing_length="13.50" queueing_length_experimental="13.50"/>
            <lane id="-gneE5_0" queueing_time="53.00" queueing_length="108.71" queueing_length_experimental="108.71"/>
            <lane id="gneE0_0" queueing_time="17.00" queueing_length="103.51" queueing_length_experimental="103.51"/>
        </lanes>
    </data>
    <data timestep="76.00">
        <lanes>
            <lane id="-gneE1_0" queueing_time="42.00" queueing_length="66.01" queueing_length_experimental="66.01"/>
            <lane id="-gneE3_0" queueing_time="8.00" queueing_length="13.50" queueing_length_experimental="13.50"/>
            <lane id="-gneE5_0" queueing_time="54.00" queueing_length="108.71" queueing_length_experimental="108.71"/>
            <lane id="gneE0_0" queueing_time="16.00" queueing_length="103.51" queueing_length_experimental="103.51"/>
        </lanes>
    </data>
    <data timestep="77.00">
        <lanes>
            <lane id="-gneE1_0" queueing_time="43.00" queueing_length="66.01" queueing_length_experimental="66.01"/>
            <lane id="-gneE3_0" queueing_time="9.00" queueing_length="13.50" queueing_length_experimental="13.50"/>
            <lane id="-gneE5_0" queueing_time="55.00" queueing_length="108.71" queueing_length_experimental="108.71"/>
            <lane id="gneE0_0" queueing_time="15.00" queueing_length="103.51" queueing_length_experimental="103.51"/>
        </lanes>
    </data>
    <data timestep="78.00">
        <lanes>
            <lane id="-gneE1_0" queueing_time="44.00" queueing_length="66.01" queueing_length_experimental="66.01"/>
            <lane id="-gneE3_0" queueing_time="10.00" queueing_length="13.50" queueing_length_experimental="13.50"/>
            <lane id="-gneE5_0" queueing_time="56.00" queueing_length="108.71" queueing_length_experimental="108.71"/>
            <lane id="gneE0_0" queueing_time="13.00" queueing_length="103.51" queueing_length_experimental="103.51"/>
        </lanes>
    </data>
    <data timestep="79.00">
        <lanes>
            <lane id="-gneE1_0" queueing_time="45.00" queueing_length="66.01" queueing_length_experimental="66.01"/>
            <lane id="-gneE3_0" queueing_time="11.00" queueing_length="13.50" queueing_length_experimental="13.50"/>
            <lane id="-gneE5_0" queueing_time="57.00" queueing_length="108.71" queueing_length_experimental="108.71"/>
            <lane id="gneE0_0" queueing_time="11.00" queueing_length="103.51" queueing_length_experimental="103.51"/>
        </lanes>
    </data>
    <data timestep="80.00">
        <lanes>
            <lane id="-gneE1_0" queueing_time="46.00" queueing_length="66.01" queueing_length_experimental="66.01"/>
            <lane id="-gneE3_0" queueing_time="12.00" queueing_length="13.50" queueing_length_experimental="13.50"/>
            <lane id="-gneE5_0" queueing_time="58.00" queueing_length="108.71" queueing_length_experimental="108.71"/>
            <lane id="gneE0_0" queueing_time="0.00" queueing_length="0.00" queueing_length_experimental="103.37"/>
        </lanes>
    </data>
    <data timestep="81.00">
        <lanes>
            <lane id="-gneE1_0" queueing_time="47.00" queueing_length="66.01" queueing_length_experimental="66.01"/>
            <lane id="-gneE3_0" queueing_time="13.00" queueing_length="13.50" queueing_length_experimental="13.50"/>
            <lane id="-gneE5_0" queueing_time="59.00" queueing_length="108.71" queueing_length_experimental="108.71"/>
            <lane id="gneE0_0" queueing_time="0.00" queueing_length="0.00" queueing_length_experimental="103.07"/>
        </lanes>
    </data>
    <data timestep="82.00">
        <lanes>
            <lane id="-gneE1_0" queueing_time="48.00" queueing_length="66.01" queueing_length_experimental="66.01"/>
            <lane id="-gneE3_0" queueing_time="14.00" queueing_length="13.50" queueing_length_experimental="13.50"/>
            <lane id="-gneE5_0" queueing_time="60.00" queueing_length="108.71" queueing_length_experimental="108.71"/>
            <lane id="gneE0_0" queueing_time="0.00" queueing_length="0.00" queueing_length_experimental="102.53"/>
        </lanes>
    </data>
    <data timestep="83.00">
        <lanes>
            <lane id="-gneE1_0" queueing_time="49.00" queueing_length="66.01" queueing_length_experimental="66.01"/>
            <lane id="-gneE3_0" queueing_time="15.00" queueing_length="13.50" queueing_length_experimental="13.50"/>
            <lane id="-gneE5_0" queueing_time="61.00" queueing_length="108.71" queueing_length_experimental="108.71"/>
            <lane id="gneE0_0" queueing_time="0.00" queueing_length="0.00" queueing_length_experimental="101.74"/>
        </lanes>
    </data>
    <data timestep="84.00">
        <lanes>
            <lane id="-gneE1_0" queueing_time="50.00" queueing_length="66.01" queueing_length_experimental="66.01"/>
            <lane id="-gneE3_0" queueing_time="16.00" queueing_length="13.50" queueing_length_experimental="13.50"/>
            <lane id="-gneE5_0" queueing_time="62.00" queueing_length="108.71" queueing_length_experimental="108.71"/>
            <lane id="gneE0_0" queueing_time="0.00" queueing_length="0.00" queueing_length_experimental="100.83"/>
        </lanes>
    </data>
    <data timestep="85.00">
        <lanes>
            <lane id="-gneE1_0" queueing_time="51.00" queueing_length="66.01" queueing_length_experimental="66.01"/>