<?xml version="1.0" encoding="UTF-8"?>

<!-- generated on 03/28/21 11:57:45 by Eclipse SUMO GUI Version 1.8.0
<configuration xmlns:xsi="http://www.w3.org/2001/XMLSchema-instance" xsi:noNamespaceSchemaLocation="http://sumo.dlr.de/xsd/sumoConfiguration.xsd">

    <input>
        <net-file value="simpleMap.net.xml"/>
        <route-files value="passenger_routes.rou.xml,bus_routes.rou.xml,truck_routes.rou.xml,delivery_routes.rou.xml"/>
        <additional-files value="add_macro.xml"/>
    </input>

    <output>
        <queue-output value="queuedata.xml"/>
    </output>

    <traci_server>
        <remote-port value="60372"/>
    </traci_server>

</configuration>
-->

<queue-export xmlns:xsi="http://www.w3.org/2001/XMLSchema-instance" xsi:noNamespaceSchemaLocation="http://sumo.dlr.de/xsd/queue_file.xsd">
    <data timestep="0.00">
        <lanes/>
    </data>
    <data timestep="1.00">
        <lanes/>
    </data>
    <data timestep="2.00">
        <lanes/>
    </data>
    <data timestep="3.00">
        <lanes/>
    </data>
    <data timestep="4.00">
        <lanes/>
    </data>
    <data timestep="5.00">
        <lanes/>
    </data>
    <data timestep="6.00">
        <lanes/>
    </data>
    <data timestep="7.00">
        <lanes/>
    </data>
    <data timestep="8.00">
        <lanes/>
    </data>
    <data timestep="9.00">
        <lanes/>
    </data>
    <data timestep="10.00">
        <lanes/>
    </data>
    <data timestep="11.00">
        <lanes/>
    </data>
    <data timestep="12.00">
        <lanes/>
    </data>
    <data timestep="13.00">
        <lanes/>
    </data>
    <data timestep="14.00">
        <lanes/>
    </data>
    <data timestep="15.00">
        <lanes/>
    </data>
    <data timestep="16.00">
        <lanes/>
    </data>
    <data timestep="17.00">
        <lanes/>
    </data>
    <data timestep="18.00">
        <lanes/>
    </data>
    <data timestep="19.00">
        <lanes/>
    </data>
    <data timestep="20.00">
        <lanes/>
    </data>
    <data timestep="21.00">
        <lanes/>
    </data>
    <data timestep="22.00">
        <lanes>
            <lane id="-gneE5_0" queueing_time="0.00" queueing_length="0.00" queueing_length_experimental="6.03"/>
        </lanes>
    </data>
    <data timestep="23.00">
        <lanes>
            <lane id="-gneE5_0" queueing_time="1.00" queueing_length="6.01" queueing_length_experimental="6.01"/>
        </lanes>
    </data>
    <data timestep="24.00">
        <lanes>
            <lane id="-gneE5_0" queueing_time="2.00" queueing_length="6.00" queueing_length_experimental="6.00"/>
        </lanes>
    </data>
    <data timestep="25.00">
        <lanes>
            <lane id="-gneE3_0" queueing_time="0.00" queueing_length="0.00" queueing_length_experimental="6.05"/>
            <lane id="-gneE5_0" queueing_time="3.00" queueing_length="6.00" queueing_length_experimental="6.00"/>
        </lanes>
    </data>
    <data timestep="26.00">
        <lanes>
            <lane id="-gneE5_0" queueing_time="4.00" queueing_length="6.00" queueing_length_experimental="6.00"/>
        </lanes>
    </data>
    <data timestep="27.00">
        <lanes>
            <lane id="-gneE5_0" queueing_time="5.00" queueing_length="6.00" queueing_length_experimental="6.00"/>
        </lanes>
    </data>
    <data timestep="28.00">
        <lanes>
            <lane id="-gneE5_0" queueing_time="6.00" queueing_length="6.00" queueing_length_experimental="6.00"/>
        </lanes>
    </data>
    <data timestep="29.00">
        <lanes>
            <lane id="-gneE1_0" queueing_time="0.00" queueing_length="0.00" queueing_length_experimental="6.04"/>
            <lane id="-gneE5_0" queueing_time="7.00" queueing_length="6.00" queueing_length_experimental="20.56"/>
        </lanes>
    </data>
    <data timestep="30.00">
        <lanes>
            <lane id="-gneE1_0" queueing_time="1.00" queueing_length="6.01" queueing_length_experimental="6.01"/>
            <lane id="-gneE3_0" queueing_time="0.00" queueing_length="0.00" queueing_length_experimental="6.29"/>
            <lane id="-gneE5_0" queueing_time="8.00" queueing_length="20.52" queueing_length_experimental="20.52"/>
        </lanes>
    </data>
    <data timestep="31.00">
        <lanes>
            <lane id="-gneE1_0" queueing_time="2.00" queueing_length="6.00" queueing_length_experimental="6.00"/>
            <lane id="-gneE3_0" queueing_time="0.00" queueing_length="0.00" queueing_length_experimental="6.01"/>
            <lane id="-gneE5_0" queueing_time="9.00" queueing_length="20.51" queueing_length_experimental="30.22"/>
        </lanes>
    </data>
    <data timestep="32.00">
        <lanes>
            <lane id="-gneE1_0" queueing_time="3.00" queueing_length="6.00" queueing_length_experimental="6.00"/>
            <lane id="-gneE3_0" queueing_time="1.00" queueing_length="6.00" queueing_length_experimental="13.67"/>
            <lane id="-gneE5_0" queueing_time="10.00" queueing_length="30.15" queueing_length_experimental="39.85"/>
        </lanes>
    </data>
    <data timestep="33.00">
        <lanes>
            <lane id="-gneE1_0" queueing_time="4.00" queueing_length="6.00" queueing_length_experimental="13.58"/>
            <lane id="-gneE3_0" queueing_time="2.00" queueing_length="13.58" queueing_length_experimental="13.58"/>
            <lane id="-gneE5_0" queueing_time="11.00" queueing_length="30.13" queueing_length_experimental="39.29"/>
        </lanes>
    </data>
    <data timestep="34.00">
        <lanes>
            <lane id="-gneE1_0" queueing_time="5.00" queueing_length="13.53" queueing_length_experimental="21.27"/>
            <lane id="-gneE3_0" queueing_time="3.00" queueing_length="13.54" queueing_length_experimental="13.54"/>
            <lane id="-gneE5_0" queueing_time="12.00" queueing_length="30.11" queueing_length_experimental="47.16"/>
        </lanes>
    </data>
    <data timestep="35.00">
        <lanes>
            <lane id="-gneE1_0" queueing_time="6.00" queueing_length="13.50" queueing_length_experimental="21.12"/>
            <lane id="-gneE3_0" queueing_time="4.00" queueing_length="13.51" queueing_length_experimental="13.51"/>
            <lane id="-gneE5_0" queueing_time="13.00" queueing_length="39.13" queueing_length_experimental="46.85"/>
        </lanes>
    </data>
    <data timestep="36.00">
        <lanes>
            <lane id="-gneE1_0" queueing_time="7.00" queueing_length="21.05" queueing_length_experimental="28.80"/>
            <lane id="-gneE3_0" queueing_time="5.00" queueing_length="13.51" queueing_length_experimental="13.51"/>
            <lane id="-gneE5_0" queueing_time="7.00" queueing_length="39.11" queueing_length_experimental="54.40"/>
        </lanes>
    </data>
    <data timestep="37.00">
        <lanes>
            <lane id="-gneE1_0" queueing_time="8.00" queueing_length="21.01" queueing_length_experimental="28.57"/>
            <lane id="-gneE3_0" queueing_time="6.00" queueing_length="13.50" queueing_length_experimental="13.50"/>
            <lane id="-gneE5_0" queueing_time="6.00" queueing_length="54.30" queueing_length_experimental="54.30"/>
            <lane id="gneE0_0" queueing_time="0.00" queueing_length="0.00" queueing_length_experimental="6.22"/>
        </lanes>
    </data>
    <data timestep="38.00">
        <lanes>
            <lane id="-gneE1_0" queueing_time="9.00" queueing_length="28.54" queueing_length_experimental="28.54"/>
            <lane id="-gneE3_0" queueing_time="7.00" queueing_length="13.50" queueing_length_experimental="13.50"/>
            <lane id="-gneE5_0" queueing_time="4.00" queueing_length="46.62" queueing_length_experimental="54.17"/>
            <lane id="gneE0_0" queueing_time="0.00" queueing_length="0.00" queueing_length_experimental="6.01"/>
        </lanes>
    </data>
    <data timestep="39.00">
        <lanes>
            <lane id="-gneE1_0" queueing_time="10.00" queueing_length="28.51" queueing_length_experimental="28.51"/>
            <lane id="-gneE3_0" queueing_time="8.00" queueing_length="13.50" queueing_length_experimental="13.50"/>
            <lane id="-gneE5_0" queueing_time="3.00" queueing_length="54.14" queueing_length_experimental="61.68"/>
            <lane id="gneE0_0" queueing_time="1.00" queueing_length="6.00" queueing_length_experimental="6.00"/>
        </lanes>
    </data>
    <data timestep="40.00">
        <lanes>
            <lane id="-gneE1_0" queueing_time="11.00" queueing_length="28.51" queueing_length_experimental="28.51"/>
            <lane id="-gneE3_0" queueing_time="9.00" queueing_length="13.50" queueing_length_experimental="23.26"/>
            <lane id="-gneE5_0" queueing_time="2.00" queueing_length="61.65" queueing_length_experimental="61.65"/>
            <lane id="gneE0_0" queueing_time="2.00" queueing_length="6.00" queueing_length_experimental="13.52"/>
        </lanes>
    </data>
    <data timestep="41.00">
        <lanes>
            <lane id="-gneE1_0" queueing_time="8.00" queueing_length="28.50" queueing_length_experimental="28.50"/>
            <lane id="-gneE3_0" queueing_time="10.00" queueing_length="13.50" queueing_length_experimental="23.15"/>
            <lane id="-gneE5_0" queueing_time="2.00" queueing_length="61.62" queueing_length_experimental="61.62"/>
            <lane id="gneE0_0" queueing_time="3.00" queueing_length="13.50" queueing_length_experimental="13.50"/>
        </lanes>
    </data>
    <data timestep="42.00">
        <lanes>
            <lane id="-gneE1_0" queueing_time="7.00" queueing_length="28.50" queueing_length_experimental="36.10"/>
            <lane id="-gneE3_0" queueing_time="11.00" queueing_length="23.11" queueing_length_experimental="23.11"/>
            <lane id="-gneE5_0" queueing_time="2.00" queueing_length="13.00" queueing_length_experimental="61.44"/>
            <lane id="gneE0_0" queueing_time="4.00" queueing_length="13.50" queueing_length_experimental="21.06"/>
        </lanes>
    </data>
    <data timestep="43.00">
        <lanes>
            <lane id="-gneE1_0" queueing_time="6.00" queueing_length="36.01" queueing_length_experimental="36.01"/>
            <lane id="-gneE3_0" queueing_time="12.00" queueing_length="23.10" queueing_length_experimental="23.10"/>
            <lane id="-gneE5_0" queueing_time="3.00" queueing_length="22.64" queueing_length_experimental="68.94"/>
            <lane id="gneE0_0" queueing_time="5.00" queueing_length="21.02" queueing_length_experimental="21.02"/>
        </lanes>
    </data>
    <data timestep="44.00">
        <lanes>
            <lane id="-gneE1_0" queueing_time="2.00" queueing_length="36.01" queueing_length_experimental="36.01"/>
            <lane id="-gneE3_0" queueing_time="13.00" queueing_length="23.10" queueing_length_experimental="23.10"/>
            <lane id="-gneE5_0" queueing_time="4.00" queueing_length="31.66" queueing_length_experimental="67.87"/>
            <lane id="gneE0_0" queueing_time="6.00" queueing_length="21.01" queueing_length_experimental="21.01"/>
        </lanes>
    </data>
    <data timestep="45.00">
        <lanes>
            <lane id="-gneE1_0" queueing_time="0.00" queueing_length="0.00" queueing_length_experimental="35.58"/>
            <lane id="-gneE3_0" queueing_time="14.00" queueing_length="23.10" queueing_length_experimental="23.10"/>
            <lane id="-gneE5_0" queueing_time="5.00" queueing_length="31.61" queueing_length_experimental="56.27"/>
            <lane id="gneE0_0" queueing_time="7.00" queueing_length="21.00" queueing_length_experimental="37.14"/>
        </lanes>
    </data>
    <data timestep="46.00">
        <lanes>
            <lane id="-gneE1_0" queueing_time="1.00" queueing_length="6.00" queueing_length_experimental="34.43"/>
            <lane id="-gneE3_0" queueing_time="14.00" queueing_length="23.10" queueing_length_experimental="23.10"/>
            <lane id="-gneE5_0" queueing_time="6.00" queueing_length="39.12" queueing_length_experimental="55.33"/>
            <lane id="gneE0_0" queueing_time="8.00" queueing_length="28.51" queueing_length_experimental="36.12"/>
        </lanes>
    </data>
    <data timestep="47.00">
        <lanes>
            <lane id="-gneE1_0" queueing_time="2.00" queueing_length="6.00" queueing_length_experimental="13.52"/>
            <lane id="-gneE3_0" queueing_time="6.00" queueing_length="23.10" queueing_length_experimental="23.10"/>
            <lane id="-gneE5_0" queueing_time="7.00" queueing_length="46.67" queueing_length_experimental="63.19"/>
            <lane id="gneE0_0" queueing_time="9.00" queueing_length="28.50" queueing_length_experimental="36.02"/>
        </lanes>
    </data>
    <data timestep="48.00">
        <lanes>
            <lane id="-gneE1_0" queueing_time="3.00" queueing_length="13.51" queueing_length_experimental="21.14"/>
            <lane id="-gneE3_0" queueing_time="0.00" queueing_length="0.00" queueing_length_experimental="30.74"/>
            <lane id="-gneE5_0" queueing_time="8.00" queueing_length="46.63" queueing_length_experimental="71.02"/>
            <lane id="gneE0_0" queueing_time="10.00" queueing_length="36.01" queueing_length_experimental="36.01"/>
        </lanes>
    </data>
    <data timestep="49.00">
        <lanes>
            <lane id="-gneE1_0" queueing_time="4.00" queueing_length="21.07" queueing_length_experimental="28.69"/>
            <lane id="-gneE3_0" queueing_time="0.00" queueing_length="0.00" queueing_length_experimental="29.88"/>
            <lane id="-gneE5_0" queueing_time="9.00" queueing_length="54.14" queueing_length_experimental="70.19"/>
            <lane id="gneE0_0" queueing_time="11.00" queueing_length="36.01" queueing_length_experimental="36.01"/>
        </lanes>
    </data>
    <data timestep="50.00">
        <lanes>
            <lane id="-gneE1_0" queueing_time="5.00" queueing_length="21.01" queueing_length_experimental="28.58"/>
            <lane id="-gneE3_0" queueing_time="1.00" queueing_length="6.01" queueing_length_experimental="6.01"/>
            <lane id="-gneE5_0" queueing_time="10.00" queueing_length="54.12" queueing_length_experimental="69.77"/>
            <lane id="gneE0_0" queueing_time="12.00" queueing_length="36.01" queueing_length_experimental="36.01"/>
        </lanes>
    </data>
    <data timestep="51.00">
        <lanes>
            <lane id="-gneE1_0" queueing_time="6.00" queueing_length="28.52" queueing_length_experimental="36.62"/>
            <lane id="-gneE3_0" queueing_time="2.00" queueing_length="6.00" queueing_length_experimental="6.00"/>
            <lane id="-gneE5_0" queueing_time="11.00" queueing_length="61.68" queueing_length_experimental="79.48"/>
            <lane id="gneE0_0" queueing_time="11.00" queueing_length="36.01" queueing_length_experimental="43.68"/>
        </lanes>
    </data>
    <data timestep="52.00">
        <lanes>
            <lane id="-gneE1_0" queueing_time="7.00" queueing_length="28.51" queueing_length_experimental="36.28"/>
            <lane id="-gneE3_0" queueing_time="3.00" queueing_length="6.00" queueing_length_experimental="15.66"/>
            <lane id="-gneE5_0" queueing_time="12.00" queueing_length="61.65" queueing_length_experimental="79.04"/>
            <lane id="gneE0_0" queueing_time="10.00" queueing_length="36.01" queueing_length_experimental="43.58"/>
        </lanes>
    </data>
    <data timestep="53.00">
        <lanes>
            <lane id="-gneE1_0" queueing_time="8.00" queueing_length="28.50" queueing_length_experimental="43.80"/>
            <lane id="-gneE3_0" queueing_time="4.00" queueing_length="15.63" queueing_length_experimental="23.20"/>
            <lane id="-gneE5_0" queueing_time="13.00" queueing_length="69.17" queueing_length_experimental="86.70"/>
            <lane id="gneE0_0" queueing_time="8.00" queueing_length="43.52" queueing_length_experimental="51.40"/>
        </lanes>
    </data>
    <data timestep="54.00">
        <lanes>
            <lane id="-gneE1_0" queueing_time="9.00" queueing_length="36.01" queueing_length_experimental="43.56"/>
            <lane id="-gneE3_0" queueing_time="5.00" queueing_length="23.15" queueing_length_experimental="30.82"/>
            <lane id="-gneE5_0" queueing_time="14.00" queueing_length="78.79" queueing_length_experimental="94.81"/>
            <lane id="gneE0_0" queueing_time="7.00" queueing_length="43.51" queueing_length_experimental="51.17"/>
        </lanes>
    </data>
    <data timestep="55.00">
        <lanes>
            <lane id="-gneE1_0" queueing_time="10.00" queueing_length="43.52" queueing_length_experimental="51.94"/>
            <lane id="-gneE3_0" queueing_time="6.00" queueing_length="23.11" queueing_length_experimental="30.68"/>
            <lane id="-gneE5_0" queueing_time="15.00" queueing_length="78.75" queueing_length_experimental="94.36"/>
            <lane id="gneE0_0" queueing_time="3.00" queueing_length="43.51" queueing_length_experimental="58.82"/>
        </lanes>
    </data>
    <data timestep="56.00">
        <lanes>
            <lane id="-gneE1_0" queueing_time="11.00" queueing_length="43.51" queueing_length_experimental="51.37"/>
            <lane id="-gneE3_0" queueing_time="7.00" queueing_length="30.64" queueing_length_experimental="45.19"/>
            <lane id="-gneE5_0" queueing_time="16.00" queueing_length="86.28" queueing_length_experimental="102.13"/>
            <lane id="gneE0_0" queueing_time="2.00" queueing_length="51.01" queueing_length_experimental="58.64"/>
        </lanes>
    </data>
    <data timestep="57.00">
        <lanes>
            <lane id="-gneE1_0" queueing_time="12.00" queueing_length="43.51" queueing_length_experimental="51.19"/>
            <lane id="-gneE3_0" queueing_time="8.00" queueing_length="45.15" queueing_length_experimental="54.28"/>
            <lane id="-gneE5_0" queueing_time="15.00" queueing_length="86.24" queueing_length_experimental="101.84"/>
            <lane id="gneE0_0" queueing_time="3.00" queueing_length="58.56" queueing_length_experimental="66.68"/>
        </lanes>
    </data>
    <data timestep="58.00">
        <lanes>
            <lane id="-gneE1_0" queueing_time="13.00" queueing_length="43.51" queueing_length_experimental="51.04"/>
            <lane id="-gneE3_0" queueing_time="9.00" queueing_length="45.12" queueing_length_experimental="54.16"/>
            <lane id="-gneE5_0" queueing_time="15.00" queueing_length="86.23" queueing_length_experimental="101.54"/>
            <lane id="gneE0_0" queueing_time="4.00" queueing_length="58.47" queueing_length_experimental="66.22"/>
        </lanes>
    </data>
    <data timestep="59.00">
        <lanes>
            <lane id="-gneE1_0" queueing_time="14.00" queueing_length="51.02" queueing_length_experimental="51.02"/>
            <lane id="-gneE3_0" queueing_time="10.00" queueing_length="54.13" queueing_length_experimental="61.72"/>
            <lane id="-gneE5_0" queueing_time="14.00" queueing_length="93.74" queueing_length_experimental="101.35"/>
            <lane id="gneE0_0" queueing_time="5.00" queueing_length="21.02" queueing_length_experimental="66.06"/>
        </lanes>
    </data>
    <data timestep="60.00">
        <lanes>
            <lane id="-gneE1_0" queueing_time="15.00" queueing_length="51.01" queueing_length_experimental="51.01"/>
            <lane id="-gneE3_0" queueing_time="11.00" queueing_length="61.66" queueing_length_experimental="69.31"/>
            <lane id="-gneE5_0" queueing_time="14.00" queueing_length="101.28" queueing_length_experimental="101.28"/>
            <lane id="gneE0_0" queueing_time="6.00" queueing_length="21.01" queueing_length_experimental="65.37"/>
        </lanes>
    </data>
    <data timestep="61.00">
        <lanes>
            <lane id="-gneE1_0" queueing_time="16.00" queueing_length="51.01" queueing_length_experimental="51.01"/>
            <lane id="-gneE3_0" queueing_time="12.00" queueing_length="61.63" queueing_length_experimental="69.18"/>
            <lane id="-gneE5_0" queueing_time="13.00" queueing_length="101.23" queueing_length_experimental="101.23"/>
            <lane id="gneE0_0" queueing_time="7.00" queueing_length="28.51" queueing_length_experimental="44.52"/>
        </lanes>
    </data>
    <data timestep="62.00">
        <lanes>
            <lane id="-gneE1_0" queueing_time="17.00" queueing_length="51.01" queueing_length_experimental="51.01"/>
            <lane id="-gneE3_0" queueing_time="13.00" queueing_length="69.15" queueing_length_experimental="76.73"/>
            <lane id="-gneE5_0" queueing_time="12.00" queueing_length="101.22" queueing_length_experimental="101.22"/>
            <lane id="gneE0_0" queueing_time="8.00" queueing_length="28.51" queueing_length_experimental="52.10"/>
        </lanes>
    </data>
    <data timestep="63.00">
        <lanes>
            <lane id="-gneE1_0" queueing_time="18.00" queueing_length="51.01" queueing_length_experimental="58.57"/>
            <lane id="-gneE3_0" queueing_time="14.00" queueing_length="76.66" queueing_length_experimental="76.66"/>
            <lane id="-gneE5_0" queueing_time="11.00" queueing_length="101.22" queueing_length_experimental="101.22"/>
            <lane id="gneE0_0" queueing_time="9.00" queueing_length="36.01" queueing_length_experimental="69.94"/>
        </lanes>
    </data>
    <data timestep="64.00">
        <lanes>
            <lane id="-gneE1_0" queueing_time="19.00" queueing_length="58.54" queueing_length_experimental="58.54"/>
            <lane id="-gneE3_0" queueing_time="15.00" queueing_length="76.63" queueing_length_experimental="76.63"/>
            <lane id="-gneE5_0" queueing_time="11.00" queueing_length="101.21" queueing_length_experimental="101.21"/>
            <lane id="gneE0_0" queueing_time="10.00" queueing_length="36.01" queueing_length_experimental="59.60"/>
        </lanes>
    </data>
    <data timestep="65.00">
        <lanes>
            <lane id="-gneE1_0" queueing_time="20.00" queueing_length="58.51" queueing_length_experimental="58.51"/>
            <lane id="-gneE3_0" queueing_time="16.00" queueing_length="76.62" queueing_length_experimental="76.62"/>
            <lane id="-gneE5_0" queueing_time="10.00" queueing_length="101.21" queueing_length_experimental="101.21"/>
            <lane id="gneE0_0" queueing_time="11.00" queueing_length="43.51" queueing_length_experimental="67.43"/>
        </lanes>
    </data>
    <data timestep="66.00">
        <lanes>
            <lane id="-gneE1_0" queueing_time="19.00" queueing_length="58.51" queueing_length_experimental="66.11"/>
            <lane id="-gneE3_0" queueing_time="17.00" queueing_length="76.61" queueing_length_experimental="76.61"/>
            <lane id="-gneE5_0" queueing_time="8.00" queueing_length="101.21" queueing_length_experimental="101.21"/>
            <lane id="gneE0_0" queueing_time="12.00" queueing_length="51.03" queueing_length_experimental="75.22"/>
        </lanes>
    </data>
    <data timestep="67.00">
        <lanes>
            <lane id="-gneE1_0" queueing_time="19.00" queueing_length="66.02" queueing_length_experimental="66.02"/>
            <lane id="-gneE3_0" queueing_time="18.00" queueing_length="76.61" queueing_length_experimental="76.61"/>
            <lane id="-gneE5_0" queueing_time="8.00" queueing_length="101.21" queueing_length_experimental="101.21"/>
            <lane id="gneE0_0" queueing_time="13.00" queueing_length="58.57" queueing_length_experimental="83.40"/>
        </lanes>
    </data>
    <data timestep="68.00">
        <lanes>
            <lane id="-gneE1_0" queueing_time="18.00" queueing_length="66.02" queueing_length_experimental="66.02"/>
            <lane id="-gneE3_0" queueing_time="19.00" queueing_length="76.61" queueing_length_experimental="76.61"/>
            <lane id="-gneE5_0" queueing_time="9.00" queueing_length="101.12" queueing_length_experimental="101.12"/>
            <lane id="gneE0_0" queueing_time="14.00" queueing_length="58.53" queueing_length_experimental="82.37"/>
        </lanes>
    </data>
    <data timestep="69.00">
        <lanes>
            <lane id="-gneE1_0" queueing_time="16.00" queueing_length="66.01" queueing_length_experimental="66.01"/>
            <lane id="-gneE3_0" queueing_time="20.00" queueing_length="76.61" queueing_length_experimental="76.61"/>
            <lane id="-gneE5_0" queueing_time="3.00" queueing_length="15.07" queueing_length_experimental="100.80"/>
            <lane id="gneE0_0" queueing_time="15.00" queueing_length="58.51" queueing_length_experimental="90.50"/>
        </lanes>
    </data>
    <data timestep="70.00">
        <lanes>
            <lane id="-gneE1_0" queueing_time="16.00" queueing_length="66.01" queueing_length_experimental="66.01"/>
            <lane id="-gneE3_0" queueing_time="21.00" queueing_length="76.61" queueing_length_experimental="76.61"/>
            <lane id="-gneE5_0" queueing_time="4.00" queueing_length="15.01" queueing_length_experimental="100.32"/>
            <lane id="gneE0_0" queueing_time="16.00" queueing_length="66.02" queueing_length_experimental="89.42"/>
        </lanes>
    </data>
    <data timestep="71.00">
        <lanes>
            <lane id="-gneE1_0" queueing_time="13.00" queueing_length="66.01" queueing_length_experimental="66.01"/>
            <lane id="-gneE3_0" queueing_time="22.00" queueing_length="76.61" queueing_length_experimental="76.61"/>
            <lane id="-gneE5_0" queueing_time="5.00" queueing_length="22.52" queueing_length_experimental="38.94"/>
            <lane id="gneE0_0" queueing_time="17.00" queueing_length="66.02" queueing_length_experimental="89.22"/>
        </lanes>
    </data>
    <data timestep="72.00">
        <lanes>
            <lane id="-gneE1_0" queueing_time="9.00" queueing_length="66.01" queueing_length_experimental="66.01"/>
            <lane id="-gneE3_0" queueing_time="23.00" queueing_length="76.61" queueing_length_experimental="76.61"/>
            <lane id="-gneE5_0" queueing_time="6.00" queueing_length="22.51" queueing_length_experimental="38.25"/>
            <lane id="gneE0_0" queueing_time="18.00" queueing_length="73.52" queueing_length_experimental="88.91"/>
        </lanes>
    </data>
    <data timestep="73.00">
        <lanes>
            <lane id="-gneE1_0" queueing_time="7.00" queueing_length="66.01" queueing_length_experimental="66.01"/>
            <lane id="-gneE3_0" queueing_time="24.00" queueing_length="76.61" queueing_length_experimental="76.61"/>
            <lane id="-gneE5_0" queueing_time="7.00" queueing_length="30.04" queueing_length_experimental="45.79"/>
            <lane id="gneE0_0" queueing_time="19.00" queueing_length="73.51" queueing_length_experimental="88.72"/>
        </lanes>
    </data>
    <data timestep="74.00">
        <lanes>
            <lane id="-gneE1_0" queueing_time="2.00" queueing_length="6.00" queueing_length_experimental="65.89"/>
            <lane id="-gneE3_0" queueing_time="22.00" queueing_length="76.61" queueing_length_experimental="76.61"/>
            <lane id="-gneE5_0" queueing_time="8.00" queueing_length="30.01" queueing_length_experimental="55.52"/>
            <lane id="gneE0_0" queueing_time="20.00" queueing_length="81.02" queueing_length_experimental="88.55"/>
        </lanes>
    </data>
    <data timestep="75.00">
        <lanes>
            <lane id="-gneE1_0" queueing_time="3.00" queueing_length="6.00" queueing_length_experimental="65.13"/>
            <lane id="-gneE3_0" queueing_time="22.00" queueing_length="76.61" queueing_length_experimental="76.61"/>
            <lane id="-gneE5_0" queueing_time="9.00" queueing_length="37.53" queueing_length_experimental="63.17"/>
            <lane id="gneE0_0" queueing_time="21.00" queueing_length="88.53" queueing_length_experimental="88.53"/>
        </lanes>
    </data>
    <data timestep="76.00">
        <lanes>
            <lane id="-gneE1_0" queueing_time="4.00" queueing_length="13.53" queueing_length_experimental="29.98"/>
            <lane id="-gneE3_0" queueing_time="21.00" queueing_length="76.61" queueing_length_experimental="76.61"/>
            <lane id="-gneE5_0" queueing_time="10.00" queueing_length="45.07" queueing_length_experimental="71.58"/>
            <lane id="gneE0_0" queueing_time="22.00" queueing_length="88.52" queueing_length_experimental="88.52"/>
        </lanes>
    </data>
    <data timestep="77.00">
        <lanes>
            <lane id="-gneE1_0" queueing_time="5.00" queueing_length="13.51" queueing_length_experimental="37.75"/>
            <lane id="-gneE3_0" queueing_time="21.00" queueing_length="76.61" queueing_length_experimental="76.61"/>
            <lane id="-gneE5_0" queueing_time="11.00" queueing_length="45.02" queueing_length_experimental="70.44"/>
            <lane id="gneE0_0" queueing_time="23.00" queueing_length="88.51" queueing_length_experimental="88.51"/>
        </lanes>
    </data>
    <data timestep="78.00">
        <lanes>
            <lane id="-gneE1_0" queueing_time="6.00" queueing_length="21.02" queueing_length_experimental="45.69"/>
            <lane id="-gneE3_0" queueing_time="20.00" queueing_length="76.61" queueing_length_experimental="76.61"/>
            <lane id="-gneE5_0" queueing_time="12.00" queueing_length="54.65" queueing_length_experimental="78.42"/>
            <lane id="gneE0_0" queueing_time="24.00" queueing_length="88.51" queueing_length_experimental="88.51"/>
        </lanes>
    </data>
    <data timestep="79.00">
        <lanes>
            <lane id="-gneE1_0" queueing_time="7.00" queueing_length="21.01" queueing_length_experimental="44.78"/>
            <lane id="-gneE3_0" queueing_time="20.00" queueing_length="76.61" queueing_length_experimental="76.61"/>
            <lane id="-gneE5_0" queueing_time="13.00" queueing_length="62.16" queueing_length_experimental="77.71"/>
            <lane id="gneE0_0" queueing_time="25.00" queueing_length="88.51" queueing_length_experimental="88.51"/>
        </lanes>
    </data>
    <data timestep="80.00">
        <lanes>